Index,Composition,bandgap,spgN
11730,Cd2 La4 S8,1.7847999999999997,122
11731,Bi2 O3,1.6863000000000001,6
11732,Mg4 Ta6 N10,0.0,15
11733,Ba1 La1 Mg1 Nb1 O6,2.7808,82
11734,Al3 Pd2 U1,0.0,191
11735,O48 P14 Ni8,0.0,2
11736,Ru22 B16,0.0,55
11737,Cr2 S2,0.0,194
11738,O14 P4 Cr2,0.0,2
11739,O24 P6 Fe4,0.0,167
11740,Sn8 P6 O24,0.0,173
11741,Co2 O24 P8,0.009699999999999986,15
11742,Cs4 Fe2 Na2 N12 C12,0.0,14
11743,Cu2 Bi2 Te2 O2,0.0,129
11744,Li6 Al2 B4 O12,4.593699999999999,2
11745,Si4 O8,5.3615,9
11746,Sr2 Mn1 Cu2 S2 O2,0.0,139
11747,Na1 V1 F3,0.6925000000000003,221
11748,Cu2 H16 C4 Br6 N2 O2,0.0,2
11749,Al4 S8 N8 Cl16,1.0461999999999998,14
11750,Sb8 Ir8 C16 O16 F48,2.4943,118
11751,Sb4 C4 Cl16 O8,2.1067,2
11752,Na2 Ag2 N4 O8,2.2443,43
11753,Si4 B44 H40 C16 F44,3.4362,14
11754,Li6 S12 N6 O24 F12,5.900399999999999,176
11755,Cs2 Li3 F5,5.618399999999999,38
11756,As4 C4 S4 F44,4.5943,14
11757,Tb4 Li12 O14,0.0,14
11758,La2 P10 Cl36 O34,3.4539999999999997,4
11759,Yb8 Mo4 O24,0.0,15
11760,H20 C6 I2 N2,4.3149,11
11761,W6 C3,0.0,162
11762,Cd6 H72 C24 Br18 N6,3.4554,169
11763,Cr2 I4,0.5076,36
11764,Pr1,0.0,139
11765,Nd6 Mn2 Bi10,0.0,193
11766,Na4 Li10 Sn8,0.0,166
11767,Na1 Li2 N1,0.0,191
11768,C3 N2 Al6,0.0,166
11769,Cr4 P12 H68 N12 O52,2.7258,14
11770,Mn3 Rh1 N1,0.0,221
11771,H20 C8 N4 O16,3.0878,14
11772,Li4 B12 H72 N20,3.2896,14
11773,Nb4 S4 N4 Cl24,1.8154,2
11774,O8 Cr2 W2,0.0,12
11775,Hg8 Pb4 S8 Br8,2.2465,14
11776,Cu2 Te2,0.0,59
11777,Te1 H6 O6,1.9116,42
11778,Mo2 H1 O6,0.0,1
11779,Ti6 H4 O14,2.8908,2
11780,V12 H8 O32,0.6535000000000001,33
11781,V4 Cu6 Pb2 Cl4 O16,0.0,72
11782,Ba4 H8 C4 S4 N4 Cl4 O4,4.8714,62
11783,Nb8 Ni16 O36,0.0,60
11784,Pb12 N72,2.2747,62
11785,Mn12 Si4 Ni8,0.0,227
11786,Bi4 P8 O28,0.0,14
11787,Cu6 P6 O24,0.0,146
11788,Tb14 Ti10 O41,2.3958000000000004,8
11789,Ag9 S4 I4,0.0,8
11790,Cu9 Se5,0.0,1
11791,Ba8 P4 Pd8,0.0,62
11792,Zn12 B6 O21,1.8634000000000002,5
11793,C12 O12 F24 Ru2 Sb4,4.7623,128
11794,Li1 Mn1 P4 O12,1.6151,1
11795,Mn4 P4 O16,0.0,2
11796,V2 Cl4 O2,1.6191,15
11797,Na3 Co4 O8,0.0,2
11798,Mn2 P4 O14,0.2191,2
11799,Cr6 P8 O32,0.026000000000000023,15
11800,Cu2 H40 Se4 N4 O28,0.2929,14
11801,Mn24 O48,0.0,156
11802,Sr3 Mn4 O12,0.0,164
11803,Ba4 La4 Fe4 Cu4 O22,0.0,99
11804,In4 H28 N8 O4 F16,3.9316999999999998,19
11805,H32 Se8 N8 O20,3.748,19
11806,K8 Te4 H24 O24 F8,2.9622,61
11807,Li4 Be4 H20 N8 F16,5.6924,33
11808,Co3 P4 O14,0.2188000000000001,2
11809,K8 H8 C8 S8 N8 O4,2.3712000000000004,62
11810,P6 H24 N6 O19,0.0,148
11811,Cd2 Re4 H32 C8 S8 N16 O16,2.3899,14
11812,Mn2 H36 C8 N16 Cl8 O8,3.1973,14
11813,Fe4 H26 C12 N2 Cl4 O22,2.3056,9
11814,V4 As6 H34 C8 N16 O34,2.2969,2
11815,Li2 Ti4 O8,0.0,11
11816,Ho2 B2 O6,4.5448,40
11817,Li3 Nb4 Sn1 O12,0.0,1
11818,Ba4 Ca2 I12,2.9463999999999997,15
11819,Li1 Sn1 P1 O4,3.0124000000000004,82
11820,Bi8 O10 F4,3.0917999999999997,14
11821,Nd4 O3 F7,0.0,3
11822,Nd1 O2,0.0,225
11823,Gd2 O2 F2,3.2028,129
11824,Li12 Fe2 S8,0.0,115
11825,Sr2 O2,2.9368000000000003,194
11826,Zn2 Ag4 O8,0.2388,70
11827,Ce2 Dy2 O7,1.8007,115
11828,Ba4 Sc4 O10,3.2205999999999997,15
11829,Nd1 Sm1 O2,0.0,166
11830,Li3 Cu3 P2 O8,1.1587000000000005,1
11831,Al2 O3,4.0029,160
11832,Li4 Bi2 O6,0.0,36
11833,Cs8 O4,1.6506000000000003,62
11834,Gd6 Y2 O12,2.9924,36
11835,Ag2 Sn2 O6,0.0,8
11836,Sr2 La4 Cl16,3.8396,82
11837,Ca4 Pb4 I16,2.6263,14
11838,Li3 Cu3 P2 O8,0.6345999999999998,6
11839,Bi4 P2 O12,0.0,41
11840,Na2 Sn4 O8,0.0,141
11841,Li4 V4 S10,0.14500000000000002,15
11842,Ta2 As2 O8,2.8279,36
11843,Ba4 Na8 O8,1.6583,14
11844,Li8 Nb2 O8,0.0,63
11845,O8 Ge2 U2,0.0,88
11846,Ti2 Nb2 Cu3 O12,0.0,12
11847,K4 Rb4 O4,0.0,139
11848,Ba1 Ca1 I4,3.0153999999999996,166
11849,Mg17 Si16 O48,0.021000000000000796,3
11850,Li2 Ti2 P8 O24,0.19759999999999955,4
11851,Li4 Ti4 P8 O28,0.1742000000000008,14
11852,Li12 Sn8 P12 O48,1.9987,13
11853,Li5 Cu1 F6,1.5709999999999997,12
11854,Li3 Cu3 C3 O9,1.4634,174
11855,Li12 Bi8 P12 O48,3.0810999999999997,13
11856,Li4 Bi4 P4 O18,3.5427,4
11857,Li4 Nb1 Te3 O12,0.0,1
11858,Li12 Cu6 F24,0.0,148
11859,Li4 Cu8 F28,0.16639999999999988,14
11860,K1 Ti1 O3,0.0,99
11861,Tl2 Pb3 O9,0.0,119
11862,Ti3 Cu3 Te2 O16,0.0,8
11863,Na4 Ti7 O16,2.4747999999999997,6
11864,Li4 Nb4 F20,0.0633999999999999,5
11865,Li6 Cr2 B8 O18,2.1422,11
11866,Li6 Fe6 Si6 O24,2.3334,159
11867,Ti3 Co3 Te2 O16,0.4958,8
11868,Li8 Cr8 P8 O40,0.1773,33
11869,Li4 Fe2 P4 O14,3.5555999999999996,15
11870,Li4 Fe4 P4 O20,0.0,14
11871,Li12 Mn12 P12 O48,3.6088000000000005,14
11872,Li4 Mn2 P4 O14,2.3245,74
11873,Li2 Ni2 P4 O14,0.0,2
11874,Li2 V1 Si7 O16,1.5127999999999995,1
11875,Li4 Cu2 P8 O24,0.12080000000000002,1
11876,Li2 Mn2 Si6 O16,1.0553,2
11877,Li4 Ni4 P4 O16,3.1894,15
11878,Li4 Co4 P4 O16,2.3118,62
11879,Li4 Co4 Sn4 O16,1.2193,95
11880,Li6 Cu3 P3 O12,2.0687,152
11881,Li3 Co3 Si3 O12,1.1803000000000001,180
11882,Li16 Cr8 Si8 O32,2.6298000000000004,29
11883,Li4 Cr2 Si4 O12,1.4258000000000002,1
11884,Li8 Cr8 Si8 O32,2.5729999999999995,14
11885,Li2 Ti3 V1 O8,0.26270000000000016,12
11886,Fe8 C8 O28,2.2067,14
11887,Li2 Ti2 Fe2 O8,1.5982,15
11888,Li6 V8 P4 O16 F18,1.9562000000000002,11
11889,Li5 Cr6 P5 O24,0.5554000000000006,1
11890,Li9 Mn3 P6 O24,0.0,146
11891,Li8 V4 O8 F4,1.7004000000000001,8
11892,Li2 Co4 C8 O24,0.3133999999999999,4
11893,Li6 Mn6 F18,3.1237,148
11894,Li8 Mn8 F24,3.51,14
11895,Fe8 O10 F6,0.0,1
11896,Fe8 O6 F10,1.1787,1
11897,Li6 Fe1 Co9 O20,0.5017999999999998,2
11898,Li2 Mn1 F4,4.0065,82
11899,Li4 Co4 C6 O18,2.6157000000000004,1
11900,Li2 Cr1 Co3 O8,0.40080000000000005,12
11901,Li10 V5 O10 F5,0.7241,1
11902,Li9 Cr4 B8 O24,0.47820000000000007,1
11903,Co6 O5 F7,0.0,6
11904,Cr1 H10 S2 N4 O8,2.9651,2
11905,Li8 Co4 Si16 O40,2.4396,11
11906,Li4 V2 O4 F2,0.15229999999999988,65
11907,Li4 Ti3 Nb3 Cr2 O16,0.0,8
11908,Li6 Mn6 F18,2.4534,2
11909,Li4 V4 P12 O36,2.6902,19
11910,Li4 Fe8 C8 O28,2.3087999999999997,14
11911,Li2 Mn3 Sb1 O8,0.1025999999999998,2
11912,Li2 Mn5 O10,0.2812000000000001,2
11913,Li5 Co2 O6,0.9501,1
11914,Li2 Mn10 O20,0.5369999999999999,2
11915,Li6 Fe8 P6 H24 O38,0.07379999999999987,161
11916,Li1 V3 O8,1.3464,12
11917,Cr1 Bi14 O24,0.19600000000000017,5
11918,Ba4 Li2 V2 P4 O18,2.044,1
11919,Na8 Li4 Ca4 V4 P8 O36,1.7406000000000001,33
11920,V24 O20 F32,0.3929,14
11921,Li2 Mn4 O5 F3,0.3852000000000002,8
11922,Co6 O8 F4,0.0,2
11923,Co6 O8 F4,0.0,2
11924,Co6 O5 F7,0.048899999999999944,1
11925,Mn12 O7 F17,0.2763,1
11926,Li5 V2 Cr2 O8,0.7391999999999994,12
11927,Co6 O4 F8,0.0,1
11928,Mn12 O10 F14,0.0033000000000000806,1
11929,Mn2 Cr6 O16,0.6559999999999999,36
11930,Li8 V4 O12 F4,2.452,9
11931,Li1 Mn5 O5 F1,0.0,156
11932,Li12 Mn9 O3 F24,2.2249999999999996,1
11933,Li2 Mn4 O2 F6,1.2006999999999999,12
11934,Cr8 O8 F8,1.4245999999999999,11
11935,Li16 Fe2 O8 F4,2.9833,36
11936,Na40 Cr8 O32,0.9294000000000002,61
11937,Li4 Fe8 O4 F12,2.6416,6
11938,Li5 Ni1 O3 F2,0.0,1
11939,Li8 Ni4 O8 F4,0.7791999999999999,1
11940,Li8 V2 O6 F4,1.5544999999999998,1
11941,Li12 V8 O16 F8,0.9239000000000002,1
11942,Li2 V6 O10 F6,0.4202,6
11943,Fe8 O8 F8,0.0,6
11944,Li12 Fe2 O10 F2,0.0,1
11945,Li8 Fe4 O4 F12,2.4855,7
11946,Li16 Mn12 O4 F32,2.1687000000000003,31
11947,Li6 Fe4 C4 O16,2.0545999999999998,7
11948,Li8 V4 C8 O24,2.647,9
11949,V8 F28,0.7778,4
11950,Li7 V1 O4 F2,2.2040999999999995,1
11951,Li16 V4 F32,2.1118,62
11952,K2 Fe2 O4,1.9209,12
11953,Li20 V4 F32,3.0323,14
11954,Li3 V3 O3 F5,0.8613999999999997,1
11955,Li2 Fe6 O2 F10,2.2211,8
11956,Sb4 P16 O48,0.11949999999999994,14
11957,Li11 Ti12 Ni4 O32,0.03310000000000013,5
11958,Na5 Mn11 O24,0.0,8
11959,Li16 Co2 O8 F4,2.2083999999999997,36
11960,Cr1 Co2 O6,0.33919999999999995,1
11961,Li8 Ni1 O4 F2,3.1612,2
11962,Y8 Zr8 O24,0.48519999999999985,5
11963,Zn4 P4 H20 C8 N16 O12,4.5292,15
11964,Si1 H18 C2 N8 O2 F6,4.9958,2
11965,Li12 Ti4 Si4 O20,0.02629999999999999,33
11966,Li4 Fe4 P4 O16,3.4596,198
11967,Zn2 Co4 O8,0.0,15
11968,Sb18 P6 O42,2.2365,8
11969,Li2 Mn4 F14,1.7055000000000002,2
11970,Li2 Cr1 Si6 O15,1.2948000000000002,2
11971,Li3 V3 Si3 O12,2.3421,181
11972,Li1 V1 Si1 O4,2.6384999999999996,82
11973,Li4 Mn3 O3 F9,0.8042,1
11974,Li4 Mn6 O8 F6,1.0405,1
11975,Li1 Mn3 O2 F6,1.2142,1
11976,Li2 Mn2 P4 O16,0.1032,9
11977,Li3 Co2 Si2 O8,0.3317999999999999,1
11978,Mn4 Si4 O14,0.5751,40
11979,Gd4 As8 O22,2.484,15
11980,Li20 Sb4 S4,0.7834000000000003,4
11981,Ni9 S10,0.0,2
11982,Li12 Mn4 O8 F8,1.4868999999999999,9
11983,Li3 Cr4 P6 O24,0.0,5
11984,Li12 Mn4 O10 F4,0.8859000000000001,2
11985,Li4 Cr4 C4 O12 F8,2.7662999999999998,62
11986,Li6 Mn6 B8 O24,0.7257,7
11987,Li2 V4 F14,2.6584,9
11988,Li6 Mn1 Ni3 P6 O24,0.0,1
11989,K3 Li3 Sb9 O24,0.0,1
11990,Li2 Fe2 Si8 O19,3.5081000000000007,1
11991,Li4 V4 Si4 O16,2.7783999999999995,198
11992,Li12 V4 P4 C4 O28,3.1748999999999996,14
11993,Li8 Si16 Ni4 O40,3.9366000000000003,14
11994,Li16 Si8 Ni8 O32,3.3891999999999998,29
11995,Li8 Ti8 Mn8 V2 O36,0.8483,55
11996,Li3 Mn2 Si2 O8,0.0,1
11997,N6 O12 K2 Ca1 Cu1,0.3385,69
11998,Mn4 Si8 O22,1.0968999999999998,2
11999,Dy6 Ho6 O18,3.0511999999999997,185
12000,Li4 Er2 P2 C2 O14,4.8495,11
12001,Pt4 O12,0.0,2
12002,Li8 Bi4 B4 O16,2.3079,62
12003,Li3 Fe6 P6 O24,0.9889000000000001,1
12004,La8 Ce8 O28,1.8497000000000003,4
12005,Li4 Bi4 B8 O20,2.8952,14
12006,Ba8 Y4 Cl28,4.1943,62
12007,Ba4 Y14 Cl50,4.1259,14
12008,Ba4 Y16 Cl56,4.0974,19
12009,Y8 Hg8 O20,0.659,33
12010,Na12 Bi4 C8 S2 O32,0.06289999999999996,203
12011,Li8 Ti8 Mn2 Cr8 O36,0.7307999999999999,55
12012,Li8 Ti6 Co12 O36,0.0,6
12013,Li8 V4 C8 S2 O32,0.6354,22
12014,Li2 V6 Cr2 O16,1.1787,1
12015,Hf4 Fe4 O12,2.1447000000000003,62
12016,Li4 Fe4 B4 O12,3.242,14
12017,Li4 Cr3 Fe1 O8,2.4395,2
12018,Li4 Cr3 Fe1 O8,2.3412999999999995,10
12019,Li4 Cr3 Fe1 O8,2.3623000000000003,12
12020,Li4 Mn4 O6,0.5571000000000002,14
12021,Li4 Fe5 Co1 O12,0.0,1
12022,V2 Cr4 O8,0.0,227
12023,Rb8 Ni8 O12,1.6966,62
12024,Na4 V2 B2 P2 O14,1.4714,11
12025,Li4 V4 B4 O16,1.8254000000000001,62
12026,Li6 Fe2 P2 C2 O14,3.3393,1
12027,Li10 Mn4 P6 O24,3.6014000000000004,2
12028,Li8 Cr6 Fe2 O16,2.3039000000000005,2
12029,Li8 V4 Si6 O24,1.6149,15
12030,Li8 Cr6 Fe2 O16,2.3087,2
12031,Rb2 Fe2 O4,2.0316,15
12032,Li6 V6 B6 O24,0.20860000000000012,148
12033,Li12 Al8 V4 O24,2.2174,14
12034,Li5 Cu5 Sn2 O12,0.0,5
12035,Li4 Ti3 Cr2 Co3 O16,0.0,8
12036,Li8 Al4 V4 O16,2.2381999999999995,33
12037,Li8 Al4 V4 O16,2.5023999999999997,33
12038,Li40 Mn8 O32,0.2487999999999999,137
12039,La4 Mg4 I20,2.5974,4
12040,V5 Sb1 P6 O24,0.0,146
12041,Na6 Cu2 B2 S2 O14,0.6300999999999997,11
12042,Li4 Ti2 Co4 O10,0.7144000000000004,2
12043,Eu1 Zr1 O3,0.26510000000000034,221
12044,Li3 V1 Co4 O8,0.0,12
12045,Li4 Mn1 Cr5 O12,0.07279999999999998,12
12046,Na8 Li6 Fe4 O16,0.0,7
12047,Mg4 Fe2 O8,0.0,227
12048,Li12 Mn4 B8 O24,1.3455000000000004,14
12049,Li6 V6 B6 O24,0.399,146
12050,Li4 Cr6 O12,0.0,64
12051,Li5 Fe2 Cu5 O12,0.0,5
12052,Sr4 Ca8 I24,3.7101,19
12053,La8 Pt8 O28,0.4388000000000005,4
12054,Co5 Bi1 O12,0.0,12
12055,Li5 Fe5 O12,0.0,1
12056,Li3 V2 Fe1 O6,1.0766999999999998,12
12057,Li3 Nb4 Ni1 O12,0.6280000000000001,1
12058,Na4 Bi2 B2 S2 O14,3.0667,11
12059,Li3 Nb1 Fe3 O8,0.8872,12
12060,Li4 Fe1 P2 O8,4.2067000000000005,2
12061,Sr2 La2 I10,2.1847,1
12062,Li2 Fe2 P2 O8,3.3635,74
12063,Li12 Fe4 O12,1.8384,136
12064,V3 Bi2 P6 O24,0.9702,146
12065,Cr3 Ni3 P6 O24,0.0,146
12066,Li4 Mn3 Nb5 O16,0.0,8
12067,Lu12 Sb12 O42,2.0964,5
12068,Li8 V4 O8 F12,2.5101,62
12069,Rb2 Fe2 O4,1.7936999999999999,227
12070,Sn4 B4 O12,2.3724,9
12071,Li4 Mn4 B8 O20,1.011,15
12072,Li4 Mn1 V2 W1 O12,1.1428000000000003,1
12073,Li1 Mn3 Fe2 O8,0.057399999999999896,160
12074,Li3 Nb2 Cr1 O6,0.35299999999999976,12
12075,Li4 Fe3 Ni5 O16,0.0,8
12076,Li1 Fe3 O2 F6,2.3315,1
12077,Fe6 O5 F7,1.4227999999999998,5
12078,Fe8 O10 F6,0.0,1
12079,Co6 O4 F8,0.28669999999999995,4
12080,Li14 V14 P16 O68,1.1273,14
12081,Li4 Cr4 Sn4 O16,1.3642000000000003,95
12082,Ti4 Mn12 O32,1.7216,212
12083,Fe10 O14 F6,0.0,5
12084,Li10 Fe3 Co3 Ni2 O16,0.7782999999999998,1
12085,Li6 Mn4 Si4 O16,0.0,7
12086,Li4 V4 Si24 O56,2.246,72
12087,Li4 Ti6 Sb2 O16,0.0,186
12088,Li11 Y14 Ti14 S14 O35,0.0,2
12089,Li8 Fe12 Ni4 O32,0.0,1
12090,Fe8 O2 F16,1.5444,1
12091,V1 Sb3 P4 O16,1.8837000000000002,6
12092,Li6 Mn6 F24,1.701,63
12093,Li12 V12 Si12 O48,2.4649,181
12094,V1 Ni3 Sn2 P6 O24,1.4981999999999998,146
12095,Li30 Mn6 Si24 O72,1.3495999999999997,1
12096,Li6 V12 O26,0.22409999999999997,2
12097,Cr1 Te1 W2 O12,1.6336000000000002,1
12098,Ti3 Mn1 Sb2 P6 O24,0.0,146
12099,Ba8 Y4 I28,2.4651,62
12100,Li4 V5 Sb3 O16,0.7078000000000007,1
12101,Na8 V4 O10,0.38260000000000005,1
12102,Li4 Mn4 Fe2 P6 O24,0.8150999999999997,5
12103,Ti1 Cr2 Ni3 P6 O24,0.0,146
12104,Mn3 Cr2 Cu1 P6 O24,0.0,146
12105,Li4 V4 F20,1.866,62
12106,Zr8 N8 O4,0.9144999999999999,12
12107,Zr8 N8 O4,0.07620000000000005,62
12108,Zr8 O16,3.7235000000000005,62
12109,Li2 V5 Cu1 O12,0.5398999999999998,5
12110,Mg4 Co4 O12,0.16229999999999967,15
12111,Cr1 O3,1.6688999999999998,38
12112,Ba24 Y4 I60,3.1660999999999997,14
12113,Nb1 V3 O10,1.5159,115
12114,Li8 Ti6 V4 Cr8 O36,1.5461,26
12115,Li4 Cr1 Fe2 Ni3 P6 O24,1.4205999999999999,1
12116,Li4 Co2 Ni3 Sn1 P6 O24,2.5987000000000005,1
12117,Li8 Fe8 F24,3.0149,86
12118,Ba4 Y12 F44,6.1381000000000006,19
12119,Li4 Mn2 Cu3 Sn3 O16,0.0,8
12120,Mg4 O4,3.4257,186
12121,Li2 Fe1 F4,3.3952,82
12122,Li1 Fe7 O6 F10,1.4412000000000003,1
12123,Cr2 Fe3 Te1 P6 O24,0.0,146
12124,Li4 V3 Ni2 Sn3 O16,1.5330999999999997,1
12125,Ti5 Mn1 P6 O24,0.0,146
12126,Li6 Fe6 F18,3.0799,148
12127,Y8 O12,2.8013999999999997,11
12128,Fe6 O5 F7,1.1215000000000002,1
12129,Ta4 H30 N12 Cl14,2.1923,63
12130,Ge16 N16 O8,2.3947000000000003,164
12131,Mn1 Cr2 Ni3 P6 O24,0.0,146
12132,Li6 Fe6 F24,4.1162,2
12133,Mn12 O10 F14,0.026999999999999913,1
12134,Li8 Fe4 F20,3.7173,19
12135,Li6 Bi6 P16 O58,0.5346,15
12136,Li8 V4 P4 O20,1.2372999999999998,1
12137,Ba10 Y6 F38,6.0969,2
12138,Li4 Cr4 P4 O20,1.1484999999999999,14
12139,Li4 V2 Fe3 Co3 O16,0.6233999999999997,1
12140,Fe6 O5 F7,1.4277,38
12141,Fe6 O7 F5,0.23039999999999994,1
12142,Fe6 O5 F7,1.0713000000000001,1
12143,Fe6 O5 F7,1.1025000000000003,1
12144,Co8 O12 F4,0.0,5
12145,Li4 Mn3 Nb3 Te2 O16,0.47889999999999944,8
12146,Li3 V6 O9 F9,0.4645999999999999,1
12147,Li6 V8 O6 F18,0.9322999999999997,1
12148,Co4 O6 F2,0.0,63
12149,B8 Te4 O24,2.5854999999999997,14
12150,Na32 Ni8 O32,0.0,7
12151,Li2 V4 P4 H2 O18,1.1637000000000004,11
12152,Li6 V8 O6 F18,1.0575999999999999,1
12153,Li6 Bi6 P16 O58,0.4995,9
12154,Li8 Mn8 B24 H24 O72,1.5952,60
12155,Li40 Fe8 O32,3.0738999999999996,61
12156,Fe8 O6 F10,0.6722000000000001,1
12157,Fe6 O4 F8,1.3468,1
12158,Li8 Cr4 P4 O24,0.8508,33
12159,Fe6 O8 F4,0.0,1
12160,Li2 Cr4 P6 O26,1.2957999999999998,15
12161,Li6 Mn4 Si4 O16,0.0,4
12162,Mn12 O2 F22,0.0968,8
12163,Fe6 O4 F8,1.1624999999999999,1
12164,Li2 Mn1 Cr3 O8,0.5286,2
12165,Fe10 O15 F5,0.0,1
12166,Li4 Co8 O4 F12,1.7089,3
12167,Fe8 O6 F10,1.0832,12
12168,Fe10 O14 F6,0.0,1
12169,Fe10 O14 F6,0.0,5
12170,Fe10 O14 F6,0.0,2
12171,Al12 O18,4.662399999999999,11
12172,Li6 Fe4 O12,0.0,34
12173,Co2 Te2,0.0,194
12174,Na5 Fe2 P2 C2 O14,1.2134,6
12175,Li4 Fe2 O4 F2,1.8154000000000001,9
12176,Li17 Ag12 F29,1.4135,216
12177,Ti8 O16,2.7647,7
12178,Li3 Ti2 Cu3 O10,0.020099999999999785,2
12179,Li8 Fe16 O4 F32,2.2138999999999998,9
12180,Co6 O4 F8,0.0,1
12181,Li3 Fe4 O3 F5,2.4718,1
12182,Li2 Co6 O2 F10,2.6376999999999997,1
12183,Sr4 Ca4 I16,3.3476000000000004,14
12184,Sr2 Ca2 I8,3.713,88
12185,Li2 V2 P2 O8,2.5749999999999997,148
12186,Li4 Mn2 Si8 O22,1.3703,15
12187,Ce8 Hf8 O32,1.5339,1
12188,Li1 Mn1 Cr2 O6,0.2522,1
12189,Li2 Mn6 B6 O18,0.42910000000000004,1
12190,Fe1 Ni3 Sn2 P6 O24,0.0,146
12191,Li3 Fe9 O5 F11,1.1821000000000002,1
12192,Li4 Mn4 P4 O16,3.5237999999999996,62
12193,Ba4 Ca4 I16,3.7584999999999997,52
12194,Co4 Sb2 O12,0.0,64
12195,Li6 Ni4 P14 O42,4.0725999999999996,2
12196,Li16 Fe8 P8 O40,1.6272999999999995,14
12197,Li12 Si12 Ni6 O36,3.7537000000000003,43
12198,Li4 Fe4 Si6 O20,3.0401000000000002,43
12199,Li4 Mn1 Co3 O8,0.43469999999999986,2
12200,Li2 Mn2 F6,3.7716,194
12201,Li4 Ni4 P12 O36,3.5473,19
12202,Se2 Br4,0.8221,136
12203,Sc1 Si1 Pd2,0.0,225
12204,Rb2 Zr2 O5,1.692,123
12205,Ho2 Os1 Au1,0.0,225
12206,Nb2 C4 N2 Cl16,2.3142,36
12207,Eu1 Ag1 Au2,0.0,225
12208,Li4 Ni8 O4 F12,2.8185,62
12209,Tm2 In1 Os1,0.0,225
12210,Lu1 Th1 Tc2,0.0,225
12211,Li6 Cu1 S4,0.0,44
12212,Li1 Ti3 O4,0.0,65
12213,Li4 Mn2 Nb3 Cr3 O16,0.10729999999999995,8
12214,Li14 Ni4 P14 O48,0.0,13
12215,Li2 Ni2 P8 O24,0.0,4
12216,Li4 Fe4 P4 O20,0.0,2
12217,Sr3 Li1,0.0,139
12218,Lu2 Te4,0.0,129
12219,Nd2 Cl4,0.0,136
12220,K3 Tl1,0.0,225
12221,Ni2 Au6,0.0,194
12222,Nb1 Tl1 O3,0.11379999999999946,221
12223,Sc3 Sb1,0.0,139
12224,Ca2 Nd6,0.0,194
12225,B2 As2,1.1431000000000004,186
12226,Co4 C6 O18,0.7647999999999999,1
12227,Sc1 Al3,0.0,139
12228,Mn2 N2,0.0,186
12229,Mg4 Cr8 Cu8 O32,0.0,14
12230,V4 Zn1 S8,0.0,166
12231,Ca1 Co2 Si4 O12,1.3511000000000002,5
12232,Ca8 Mn8 Si12 O48,1.041,142
12233,Y10 Mn6 Ni6 O36,0.0,7
12234,Ca3 Co2 Te2 O12,1.0231,1
12235,Ca5 Mn2 Ni2 O12,0.023600000000000065,5
12236,Al10 Ni6 O24,0.0,1
12237,Ba12 Y20 Co12 O60,0.9337,14
12238,Mo4 O8,1.0932,87
12239,Ca5 Mn2 N6,0.0,6
12240,V4 Zn2 S8,0.0,141
12241,Ti2 Zn2 F10,0.22470000000000034,15
12242,Ti4 Zn6 O14,2.5493,36
12243,Zn4 Ag4 F20,0.0,14
12244,Zn4 Mo4 O12,1.4895999999999998,62
12245,Mg4 Ta2 Fe2 O12,2.1210999999999998,11
12246,Mg4 W4 O12,2.5393,14
12247,Ca6 Si8 Mo4 O28,2.6183000000000005,15
12248,Zn4 Cr2 W2 O12,1.9383,14
12249,Zn6 Co12 O24,0.2190000000000003,1
12250,K2 Co2 Cl6,0.0,161
12251,Ca4 Mn8 O16,1.5091,4
12252,Sn10 S8 Cl4,1.2428,2
12253,Na4 Mn4 O8,1.3261999999999996,6
12254,Ce1 Mg7,0.0,187
12255,Si2 P4 O14,4.942200000000001,14
12256,Na1 Mg6 Sn1,0.0,38
12257,Na1 Mg6 Sn1,0.0,38
12258,Mg6 Cd1 Cu1,0.0,38
12259,Mg6 Cd1 Cu1,0.0,38
12260,La2 Zn4 Co2,0.0,63
12261,Hf1 Mg14 Sn1,0.0,187
12262,Na1 Ce1 Mg14,0.0,187
12263,Na1 La1 Mg14,0.0,187
12264,Na1 Mg14 Cu1,0.0,187
12265,Na1 Mg14 Cu1,0.0,38
12266,Mg14 Zr1 Sb1,0.0,187
12267,Mg14 Ti1 Zn1,0.0,38
12268,Sr1 Y1 Mg14,0.0,187
12269,Mg14 Mn1 Bi1,0.0,187
12270,Mg14 Mn1 Zn1,0.0,38
12271,Sr1 Mg14 Al1,0.0,38
12272,Mg14 Ti1 Sn1,0.0,187
12273,Mg14 Cd1 Co1,0.0,187
12274,Te4 Mo1 W3 Se2 S2,0.0,156
12275,Te4 Mo1 W3 Se2 S2,0.0,156
12276,Te6 W4 S2,0.0,156
12277,Te6 W4 S2,0.0,156
12278,Te4 Mo1 W3 Se2 S2,0.006199999999999761,156
12279,Te4 Mo1 W3 Se2 S2,0.0,156
12280,Te4 Mo1 W3 Se2 S2,0.0,156
12281,Ba12 Re24 N48,0.0860000000000003,205
12282,Te4 Mo1 W3 Se2 S2,0.0,156
12283,Mg6 Cr1 Co1 O8,0.0,123
12284,Mg6 Cr1 Cu1 O8,0.0,123
12285,Mg6 Mn1 Fe1 O8,1.1418,123
12286,Sr1 Mg14 Co1 O16,2.0662000000000003,47
12287,Sr1 Mg14 Fe1 O16,2.1632000000000007,47
12288,Mg14 Ti1 Mn1 O16,0.0,47
12289,Ca1 Mg14 Ti1 O16,0.2129000000000012,47
12290,Mg30 V1 Si1 O32,1.8581000000000003,123
12291,Hf1 Mg30 Co1 O32,0.0017999999999993577,123
12292,Ba1 Mg30 Co1 O32,2.0597000000000003,123
12293,Rb1 Mg30 Co1 O32,1.0806999999999993,123
12294,Hf1 Mg30 Cu1 O32,0.020500000000000185,123
12295,Ba1 Mg30 Cu1 O32,0.6265000000000001,123
12296,Ca1 Mg30 Si1 O32,2.043799999999999,123
12297,Rb1 Mg30 Al1 O32,4.067200000000001,123
12298,Y1 Mg30 Al1 O32,0.06770000000000032,123
12299,Y1 Mg30 Al1 O32,0.13240000000000052,123
12300,Mg30 Nb1 Cd1 O32,0.3979999999999997,123
12301,Ba1 Mg30 Cr1 O32,1.8046999999999995,123
12302,Ba1 Mg30 Cr1 O32,1.5042,123
12303,Ca8 Mg4,0.0,8
12304,Na1 Mg30 B1 O31,2.2983000000000002,25
12305,K1 Mg30 Bi1 O32,3.4522000000000004,123
12306,K1 Ce1 Mg30 O32,0.0,123
12307,K1 Na1 Mg30 O31,2.3942,25
12308,Ba6 Mo6 F33,1.9493,145
12309,V8 Zn8 Si16 O48,1.7731000000000003,61
12310,Ca8 Bi8 Sb8 O40,2.3346,61
12311,Ca8 Mn8 Bi8 O40,1.4433999999999996,61
12312,Mg3 Ta6 Fe4 O24,2.6546,2
12313,V4 As8 O28,0.0,14
12314,Zn1 Cr4 Cu3 O12,0.0,204
12315,Sr4 Y2 Cr2 Cu4 O14,0.0,1
12316,Zn2 Cr2 Ge4 O12,0.0,15
12317,Zn4 Co4 Si16 O40,2.5827000000000004,130
12318,La2 Mg2 Fe2 Ni2 O12,0.0,7
12319,La2 Mg2 Fe2 Mo2 O12,1.2386999999999997,7
12320,Ca6 Sb12 O24,1.634,1
12321,Mn12 Al4 O24,0.0,12
12322,Zn2 W4 O12,0.552,1
12323,Mg4 Nb4 Mo2 O16,0.0,1
12324,Mo8 O16,1.2937000000000003,62
12325,Mg2 Ag1 W1 O6,0.044299999999999784,1
12326,Mg2 Mn4 O8,0.0,63
12327,Sr4 Ca1 Cr2 S2 O6,2.0054000000000003,115
12328,Ho2 Zn2 Bi4 O12,0.0,31
12329,Mg2 O2,3.2582999999999998,194