Index,Composition,bandgap,spgN
29358,Zr5 N5 O2,0.0,8
29359,Sr2 La2 Cl10,3.7546,15
29360,Na9 Mn15 O32,0.0,12
29361,Nb1 V3 Fe2 P6 O24,0.0,146
29362,V2 In2 O8,1.9123999999999994,13
29363,Lu4 As4 Pt4,0.0,194
29364,Cu3 As1 O7,0.10089999999999999,1
29365,Li1 H3 C2 O5,3.3015,1
29366,Fe4 Si4 Ni4,0.0,62
29367,K5 C3 N6,0.0,229
29368,Yb4 Ge2 S8,2.1174999999999997,11
29369,Ca2 Ni10 H1,0.0,156
29370,Na5 C3 N6,0.0,229
29371,Li2 Ti4 O8,0.0,12
29372,Sr2 Gd1 Cu2 Ru1 O8,0.0,123
29373,Be12 Co1,0.0,139
29374,Tb1 Mo6 Se8,0.0,148
29375,Ta2 P2 O10,4.0122,85
29376,Gd4 Ti2 Zn2 O12,2.7540999999999998,14
29377,Mn7 Cd1 O12,0.0,148
29378,In8 O12,0.7725,60
29379,Ba4 Y2 In2 Te10,0.4759000000000002,36
29380,Ca4 La2 Sb2 O12,3.5390999999999995,14
29381,Rb2 Li1 Bi1 I6,1.9334,225
29382,Rb2 Na1 Bi1 I6,2.1072,225
29383,Rb2 Y1 Ag1 I6,2.4884999999999997,225
29384,Rb2 Pr1 Ag1 Br6,3.0815,225
29385,K3 Y1 F6,5.7626,225
29386,Na3 Tl1 F6,3.455,225
29387,K2 Na1 Sm1 Cl6,4.7396,225
29388,Rb2 Al1 Ag1 Cl6,2.232,225
29389,K2 Tl1 As1 Br6,1.0653000000000001,225
29390,K2 Na1 Al1 Cl6,4.1434999999999995,225
29391,Rb2 Tl1 Au1 Br6,0.0,225
29392,Cs1 Rb2 Lu1 Cl6,4.4511,225
29393,Cs2 Rb1 Al1 I6,1.8835000000000002,225
29394,Cs2 Rb1 Bi1 I6,2.6776999999999997,225
29395,Cs2 Cu1 As1 Cl6,0.5581,225
29396,Cs2 Tl1 Ag1 I6,0.0,225
29397,Cs2 K1 Ga1 Cl6,3.2403999999999997,225
29398,Cs2 Al1 Hg1 F6,0.0,225
29399,Cs2 Ag1 Mo1 Br6,0.4889999999999999,225
29400,Cs2 Al1 In1 Br6,2.036,225
29401,Rb2 Hg1 As1 Cl6,0.0,225
29402,Rb2 In1 Cu1 Br6,0.0,225
29403,Cs2 Tl1 Au1 Cl6,0.0,225
29404,K1 Rb2 Tl1 Br6,1.399,225
29405,Rb2 In1 Ga1 I6,0.2298,225
29406,Mo2 F8,2.7902,1
29407,Li8 Ti16 Bi8 O48,2.7245999999999997,146
29408,Nd1 Au1,0.0,221
29409,B6 C3 U3,0.0,166
29410,Ba8 Ti2 Cu6 O18,0.28269999999999973,223
29411,Nb2 Si1 Te4,0.0,2
29412,Na2 Sb2 S4,0.23899999999999988,141
29413,Nd16 Re22 O76,0.0,1
29414,Na2 Bi21 O42,0.0,12
29415,Li4 Mn2 Co2 O8,0.6080999999999999,2
29416,Li4 Mn2 Co2 O8,0.4072,2
29417,Li3 Mn2 Co1 O6,0.0,12
29418,Li3 Mn2 Co1 O6,0.605,2
29419,Li6 Mn4 O10,0.9567000000000001,12
29420,Li6 Mn2 Co2 O10,1.1939000000000002,2
29421,Li5 Mn2 Co1 O8,0.9060000000000001,12
29422,Li5 Co3 O8,0.0,2
29423,Li4 Mn3 Co1 O8,0.39360000000000017,10
29424,Li4 Mn3 Co1 O8,0.27390000000000025,12
29425,Li4 Mn3 Co1 O8,0.3804999999999996,12
29426,Li4 Mn3 Co1 O8,0.403,10
29427,Li4 Mn3 Co1 O8,0.19019999999999992,10
29428,Li4 Mn3 Co1 O8,0.0,12
29429,Li4 Mn3 Co1 O8,0.3651,12
29430,Li5 Mn3 O8,0.0,166
29431,Li5 Mn3 O8,0.5942000000000003,2
29432,Li7 Mn4 Co1 O12,0.5049999999999999,1
29433,Li7 Mn4 Co1 O12,0.48550000000000004,5
29434,Li7 Mn5 O12,0.4708000000000001,2
29435,Li7 Mn5 O12,0.3655000000000004,2
29436,Na12 Fe6 P8 O32,2.9917000000000002,1
29437,Mn4 F12,0.8933,14
29438,Mn5 Cr1 O12,0.7755000000000001,12
29439,Li2 Sn2 P8 O24,0.0,15
29440,Li2 Mn2 F8,2.2947,12
29441,Li4 Fe8 B8 O24,1.6053000000000002,1
29442,Li6 Mn6 P18 O54,3.7222999999999997,9
29443,Li7 V4 P6 O24,0.0,1
29444,Li10 Fe2 O8 F2,0.6138,4
29445,Li10 Mn8 P16 O56,0.17909999999999981,1
29446,Li8 V6 P16 O58,0.8961999999999999,1
29447,Li10 Fe6 O16,0.0,1
29448,Li8 V6 P16 O58,0.8465,1
29449,Li8 V6 P16 O58,1.0098,1
29450,Li8 V6 P16 O58,1.0264,1
29451,Li8 V6 P16 O58,0.8058000000000001,1
29452,Li8 V6 P16 O58,0.5236000000000001,1
29453,Li20 Fe8 P12 O48,3.7295,1
29454,Li8 V6 P16 O58,0.8565,5
29455,Li8 V6 P16 O58,0.7865,1
29456,Li40 Cr10 P20 O90,0.5751000000000002,13
29457,Li6 V6 P16 O58,1.1991,1
29458,Li6 V6 P16 O58,0.2796,1
29459,Li3 Fe1 O4,0.0,1
29460,Li12 Co6 Ni15 O36,0.038000000000000256,1
29461,Li36 Gd12 O36,3.2731,165
29462,Li6 Fe6 P8 O32,2.1237,2
29463,Li6 V3 Co3 O12,1.3689000000000004,1
29464,Li8 Mn8 F28,0.8383,14
29465,Li8 Cr12 Ni4 O32,0.9145000000000001,4
29466,K2 Cr2 P2 C2 O14,0.7204,4
29467,Fe6 O2 F10,1.5085000000000002,1
29468,Cs1 Li1 Mn1 P3 H1 O10,3.2028,5
29469,Ba6 Ce4 O12,0.0,167
29470,Zn1 S2 N4 O8,0.16100000000000003,2
29471,Y10 Al6,0.0,193
29472,K1 Mn1 Cu3 Se4,0.0,215
29473,Eu2 Mn5 Al12,0.0,166
29474,Al22 P24 O96,0.06010000000000004,167
29475,Ba2 Ca6,0.0,194
29476,Ba3 Yb1,0.0,139
29477,Ca1 Ce1 Pd2,0.0,225
29478,Ce3 Hg1,0.0,139
29479,Ce1 Sm1 Zn2,0.0,225
29480,Eu4 Mg2,0.0,63
29481,Cs1 K1 Rb2,0.0,225
29482,Cs8 Mo4 O16,4.6528,62
29483,Eu2 Pd1 Au1,0.0,225
29484,Er1 Mg5,0.0,8
29485,Gd3 Y1,0.0,221
29486,In4,0.0,194
29487,La3 Cd1,0.0,221
29488,Li2 Ce1 Sn1,0.0,225
29489,K2 Rb6,0.0,194
29490,Lu6 Th2,0.0,194
29491,Gd1 Lu1 Rh2,0.0,225
29492,Mg16 Al12 Pb1,0.0,217
29493,Mg17 Al11 Au1,0.0,8
29494,Mg17 Al11 Pt1,0.0,8
29495,Mg1 Hg3,0.0,139
29496,Mg2 Pt4,0.0,12
29497,Mg1 Sc3,0.0,187
29498,Nd2 Zn1 Ru1,0.0,225
29499,Sr1 Sn3,0.0,221
29500,Tb1 Lu1 Ir2,0.0,225
29501,Ti6 Si2,0.0,194
29502,Tl1 Sn1,0.0,8
29503,Tl6 As2,0.0,194
29504,U3 Pt1,0.0,225
29505,Y2 Ru1 Pt1,0.0,225
29506,V8 B8 Ir4,0.0,58
29507,Zr10 Sb6 Ru2,0.0,193
29508,Co8 Sb8 S8,0.34199999999999964,61
29509,Mg8 Ag8 Sb8,0.0,120
29510,Ca6 Co2 Rh2 O12,0.0,167
29511,Pu2 P4 H4 C2 O12,0.0,12
29512,Y8 Rh5 C12,0.0,12
29513,Dy6 Al2 Co2 S14,0.0,4
29514,Sr2 Ca3 Cu4 Bi2 O12,0.0,139
29515,Zr6 Cr4 Ga12,0.0,59
29516,Pr6 Al2 Ni16,0.0,194
29517,Dy8 Rh5 C12,0.0,12
29518,Tb6 Ga2 Co2 S14,0.0,173
29519,Tm4 W4 Br4 O16,2.7365,2
29520,Yb4 W4 Br4 O16,0.0,2
29521,Fe4 W4 Cl20,0.0,15
29522,Hf20 Si2 Mo6,0.0,194
29523,H24 Pb4 C4 I12 N4,1.8072000000000001,62
29524,Fe4 H48 C8 N8 Cl16,0.07709999999999995,56
29525,Y4 V4 Te8 O32,1.5118999999999998,64
29526,Pb12 I8 O48,0.7903000000000002,14
29527,Fe4 H48 C8 N8 Cl16,0.048799999999999955,56
29528,Si14 H84 C28,3.698,5
29529,Si4 H24 N8 F24,7.124700000000001,61
29530,La16 Cd16 In8 S52,1.1444999999999999,55
29531,Mn4 Cr4 H72 N24 F24,0.034400000000000014,205
29532,Zn18 S18,1.9782000000000002,160
29533,Pr3 Mn18 Sn18,0.0,71
29534,K4 Dy4 P8 H16 O36,4.6441,14
29535,Cu10 P4 O24,0.03669999999999973,14
29536,Ca4 Fe12 Si8 O36,1.2586999999999997,62
29537,Ho2 H30 C6 O30,4.7867,2
29538,Ho3 Fe29,0.0,12
29539,Ba8 O48,0.0,61
29540,Zn4 P4 H20 C4 N4 Cl4 O12,4.635400000000001,14
29541,In2 Si8 H76 C28 Cl2,3.8108000000000004,2
29542,Np6 O2 F24,0.0047999999999999154,8
29543,Cu10 P4 O24,0.0,14
29544,Si22 H132 C44,3.6294000000000004,9
29545,Zn2 Co2 P4 H24 O22,3.1619,2
29546,Bi4 H56 C16 S32 N20 O4,2.837,14
29547,Co4 H72 N26 Cl10 O6,2.4139,12
29548,Rb4 Ti6 P8 O36,0.0,4
29549,K81,0.11930000000000002,204
29550,Ce4 H12 C4 S4 O28,0.17769999999999975,78
29551,Y4 Al4 Co30,0.0,194
29552,Nd4 Mn10 Co24,0.0,194
29553,Dy2 Al2 B28,0.0,74
29554,Pr6 Ge26 Ru8,0.0,223
29555,Tb2 Al2 B28,0.0,74
29556,Na2 Cu2 H56 C2 S12 N8 O28,3.2919,7
29557,Zn18 S18,1.9788999999999999,160
29558,Si4 P4 H4 O20,5.4413,14
29559,Ca7 Si16 O40,0.6992,2
29560,K16 Sc8 Si16 O56,0.5108000000000001,55
29561,In4 H48 C16 Se8 I12,2.3838999999999997,14
29562,P4 H56 C16 N4 O16,5.5604000000000005,2
29563,V8 S12 O56,0.2742,136
29564,K4 Al4 B4 P8 O36,0.19620000000000004,14
29565,Ba6 Ge18 O44,0.13449999999999995,3
29566,Bi16 O24,1.9212999999999996,206
29567,B40 H72 C8 S4,3.1645,19
29568,Ti8 H24 C8 O40,2.7791,64
29569,Ce4 H12 C4 S4 O28,0.1936,76
29570,Mo4 H48 C8 S16 N8,1.8162,62
29571,Tc2 O4,0.0,58
29572,La1 Mn3 V4 O12,0.40729999999999933,2
29573,Rb4 H12 Se8 O24,3.8446,18
29574,Ce2 Si2 Ge2,0.0,109
29575,Cs1 Yb1 H3,3.325,221
29576,Fe1 Sb1 Rh2,0.0,139
29577,Ce1 Ga2 Ni2,0.0,139
29578,Ga1 Ag3 F6,0.0,225
29579,Zn4 P8 Pd4 O28,0.18630000000000013,62
29580,Tm4 Sc4 O12,4.456099999999999,62
29581,Sr2 Y1 Cu2 Pb1 O7,0.0,123
29582,Sr2 Ca2 Cu3 Bi2 O10,0.0,139
29583,Rb2 V6 Cd2 Cu8 O26,0.0,11
29584,Rb12 Yb4 Cl24,0.0,15
29585,Pr6 Ta2 Cl6 O12,0.0,176
29586,Na2 Zn4 P4 O16,0.016600000000000004,2
29587,Na4 Co8 Se8 O28,0.6100000000000001,62
29588,Na4 Mn4 H8 C12 O28,2.5439000000000003,14
29589,Na4 H32 C4 N20 O12,4.3533,2
29590,Na4 Ho2 Ta10 O30,2.6740000000000004,127
29591,Mn2 Si2 Ag4 Te8,0.29300000000000015,31
29592,Lu6 F18,7.716,165
29593,Mg6 Cu4 P6 O24,0.0,15
29594,Lu4 Fe6 O14,0.0,194
29595,Mn12 Fe8 Si4 C4,0.0,36
29596,Li8 Fe8 W12 O48,3.2499,60
29597,Na8 Cr4 H20 C16 O44,3.185,14
29598,Lu6 Cu22 Si8,0.0,194
29599,La6 Nb2 Cl6 O12,0.0,176
29600,La8 Zr4 Cu4 O24,0.0,11
29601,Nb13 Pb15 O50,0.0,160
29602,K8 Pb4 Cl20,0.0,62
29603,In1 Fe1 Cu2 Se4,0.0,121
29604,Np4 I8 O24,0.3688,86
29605,K2 Yb2 P8 H24 O36,0.02880000000000016,15
29606,Ga1 Fe3 N1,0.0,221
29607,Fe2 As4 Pb4 O18,0.0,11
29608,Er4 Ga4 O12,3.6644,62
29609,Er1 Fe6 Sn4 Ge2,0.0,191
29610,Cs2 Ho2 Mo4 O16,2.9934,15
29611,Eu10 Ga6,0.0,12
29612,Cs4 Na4 Mo12 O40,3.2515,62
29613,Co12 P4,0.0,82
29614,Ca3 Ga3 Ge3 O14,0.0,150
29615,Ca6 Nb2 O12,0.0,14
29616,Ce6 Rh8 Pb26,0.0,223
29617,Ca8 La4 Be4 O20,0.0,62
29618,Ca2 Ce2 Al2 Fe4 Si6 O26,0.32679999999999954,11
29619,Ba2 Y1 Co1 Cu2 O7,0.0,47
29620,Zr2 Ni10 B4 O20,1.4787,26
29621,Zr4 Mo1 C5,0.0,166
29622,Zr2 As3 S1,0.0,99
29623,Zn1 Cu1,0.0,65
29624,Zn2 Pd4,0.0,123
29625,Zn2 Bi6 Ru8 O27,0.0,5
29626,Y2 Ta2 Bi4 O14,2.5122,74
29627,Y2 Ni1 Ge3,0.0,25
29628,Yb6 Mn25 Cl12 O40,0.0,123
29629,Y6 Ga17 Pt5,0.0,12
29630,V1 Ga1 Mo3 S8,0.25729999999999986,160
29631,Y4 Ga6 Fe1 Ge6,0.0,229
29632,Tl4 Br1 Cl3,2.3465,47
29633,Tl5 Br1 Cl4,2.366,65
29634,Ti1 Nb2 Zn1 O8,2.4098999999999995,3
29635,V20 As11,0.0,21
29636,Ti1 Co1 Ni1 Sn1,0.0,216
29637,Tl8 Cu24 Te16,0.20699999999999985,7
29638,Ti6 O3,0.0,10
29639,Ti1 Cr2 Si6,0.0,21
29640,Te2 Mo1 W1 Se2,1.0459999999999994,156
29641,Tb1 Fe1 Ni4,0.0,187
29642,Ta4 Bi2 O12 F2,2.4792999999999994,74
29643,Sr4 V8 As8 O40,2.1251,9
29644,Ta3 Si3 Ge3,0.0,153
29645,Ta6 Mn2 Zn3 O20,2.1509,1
29646,Sr1 La1 Ga1 O4,3.4659999999999993,107
29647,Sr1 Cr2 Bi1 O6,0.04599999999999982,146
29648,Sr3 Nd1 Cu1 Ru1 O8,0.0,38
29649,Sr3 La1 Ta3 O12,3.2203000000000004,160
29650,Sr4 Y2 Fe2 Cu4 O15,0.0,69
29651,Sr6 Ti2 Nb8 O30,1.9830999999999999,7
29652,Sr2 Pr2 Mn1 Cu1 O8,0.0,123
29653,Sr2 Gd1 Cu2 Ru1 O8,0.0,5
29654,Sn6 Mo30 Se38,0.0,11
29655,Re1 Si4 W1,0.0,123
29656,Pr1 Th1,0.0,166
29657,Pr2 Si3,0.0,44
29658,Nd1 Fe1 Ni4,0.0,187
29659,Nd2 Si3,0.0,44
29660,Nd10 S18,0.0,5
29661,Nb6 Te8 Pb1,0.0,147
29662,Nb3 Au1,0.0,65
29663,Nb3 Ir2 Se10,0.0,2
29664,Na4 Mg11 Al1 Si12 H4 O40,0.0,1
29665,Na2 Mn1 Co1 Ni1 O6,0.0,1
29666,Na4 Fe6 Sb2 O16,1.2891,31
29667,Mn10 Si4 Ge2,0.0,38
29668,Mn1 B4 W3,0.0,25
29669,Mn5 Fe5 C4,0.0,1
29670,Mn2 Ga1 Rh1,0.0,216
29671,Mn2 In2 Cu1 Pd3,0.0,160
29672,Mn3 Cr1 Te4,0.0,164
29673,Mg1 Be4 Cu1,0.0,216
29674,Mn3 Fe3 Ge2,0.0,187
29675,Li1 C1 N1 O1,4.802899999999999,160
29676,Li1 Cr1 Fe4 O8,1.3864999999999998,12
29677,La1 Fe1 Ni4,0.0,187
29678,Li2 Fe2 P2 O9 F1,0.023600000000000065,1
29679,La6 Si2 N6 O4,1.7655999999999992,42
29680,La2 Co1 Sb4,0.0,115
29681,La5 Dy3 Cu4 O16,0.0,99
29682,K2 Mg6 Al2 Si6 O22 F2,0.04299999999999993,9
29683,K2 Ba2 Fe8 Se12,0.0,26
29684,In1 Sn3,0.0,187
29685,K4 Ta6 Se12,0.0,187
29686,In2 Cu1 Se3 Br1,0.48770000000000024,1
29687,Hf4 Al4 Ir4,0.0,38
29688,Hf16 U4 Si16,0.0,76
29689,Ga1 Cu1 Te2,0.0,160
29690,Ga2 Fe2 Ni2 O8,1.7944,74
29691,Fe4 Ni4 Mo12 N4,0.0,198
29692,Er1 Cu1 Ge1,0.0,187
29693,Er2 Mn1 Ge4,0.0,38
29694,Er4 Cu5 P7,0.0,121
29695,Cu3 Ni1,0.0,65
29696,Dy1 Mn4 Cr2 Ge6,0.0,35
29697,Cs1 Mn1 P6 O18,0.2793999999999999,2
29698,Co5 Te6,0.0,148
29699,Cs2 Br1 Cl1,4.4618,123
29700,Cr2 Mo2 As4,0.0,26
29701,Cr10 Co4 Cu1 Se20,0.0,12
29702,Cr2 Fe1 Se1 S3,0.0,8
29703,Ce1 Sc1 Al4,0.0,216
29704,Ce1 Co3 Cu2,0.0,191
29705,Cu36 B24 O72,0.11870000000000003,4
29706,Ce1 Fe1 Ni4,0.0,187
29707,Ce4 Sm1,0.0,166
29708,Eu2 Ti12 Cu9 O36,0.0,147
29709,Eu2 Mg2 Al22 O38,0.042500000000000426,12
29710,Ce4 Mn3 Sb8,0.0,115
29711,Ca2 Nd2 Co2 O8,0.0,63
29712,Ca1 La3 Co2 O8,0.43870000000000076,6
29713,Bi4 Te4 Ir4,0.5087999999999999,198
29714,Ca1 Er4 B30,0.0,123
29715,Ce6 Mn1 Sb15,0.0,8
29716,Ba4 Sr4 Si16,0.8589000000000002,62
29717,Ca2 Pr2 Mn1 Ni1 O8,1.2661999999999995,8
29718,Bi3 Pb1 W1 Cl1 O8,0.7254000000000005,99
29719,Ba2 Ti4 Fe8 O22,1.6092999999999997,15
29720,Ca3 Mg1 Fe2 C6 O18,0.008600000000000385,147
29721,Ba1 Sn3 S4,1.0499999999999998,6
29722,Ba1 C1 O3,4.1318,155
29723,Ba6 Co4 W2 O18,0.3858999999999999,36
29724,Ba1 La1 Co1 Ir1 O6,0.0,1
29725,Ba8 Cu4 Hg4 O17,0.0,12
29726,Ba3 La2 Ti2 Nb2 O15,2.3848999999999996,164
29727,Ba4 La1 Ti1 Nb3 O15,2.5919000000000003,156
29728,Al2 Zn1 Se4,0.8770000000000002,6
29729,Ba2 Sr2 Y2 Cu6 O13,0.0,42
29730,Ba12 Ga16 Sb20,0.0,31
29731,Al3 Ni2 Pt1,0.0,123
29732,Al1 Ni12 Pt3,0.0,123
29733,Ag2 Sn1 Bi1 S4,0.0,119
29734,Rb1,0.0,225
29735,Zn8 Sr4,0.0,194
29736,O14 Si4 Cu2 Sr4,0.15869999999999962,113
29737,F18 Na6 Ge3,5.604900000000001,164
29738,O14 Nd6 Re2,0.0,63
29739,Ni6 Ge6 Sm2,0.0,139
29740,C4 Al8 Mo12,0.0,213
29741,Nd1 Al4,0.0,139
29742,O4 K2 Co2,0.0,122
29743,O6 Mo1 Ba2 Nd1,0.0,225
29744,C1 Rh3 Eu1,0.008300000000000196,221
29745,Ce2 Mn2 Ge2,0.0,129
29746,O24 S16 Pb8,3.5394,61
29747,Rb1 I1,3.3455,221
29748,C12 Ho8,0.0,220
29749,O16 Br4 Tl4,2.9991,62
29750,H6 Al1 K3,1.7988000000000002,139
29751,H8 N8 O20 Sr4,2.2801,4
29752,O12 Mn4 Lu4,0.3985999999999996,62
29753,O8 W2 Pb2,3.5629999999999997,88
29754,Li4 C2 O14 P2 Ni2,0.0,11
29755,Li6 C2 O14 P2 Mn2,3.6835000000000004,11
29756,Fe20 C8,0.0,2
29757,H88 B72 C16,3.6607,15
29758,Cr8 As6,0.0,8
29759,U2 Sb2 O10,0.0,2
29760,Br12 Sr2 Th2,2.0636,51
29761,O14 Nb4 U2,0.0,63
29762,Ti8 Ga6 Ni4,0.0,189
29763,Mn23 Th6,0.002300000000000857,225
29764,Li4 O20 P4 Cr4,0.0,62
29765,O8 Mn2 Re2,0.0,13
29766,O7 P2 Mn1,0.9721000000000002,5
29767,Tl4 S4,0.7034000000000002,140
29768,Li6 O24 P6 Ni6,3.5102999999999995,159
29769,Li4 O28 P8 Ni4,0.0,15
29770,Pu16 Se24,0.0035000000000007248,122
29771,Al4 Mg2 O8,4.356599999999999,160
29772,La12 Ni6 O25,0.0602999999999998,1
29773,Ba2 O24 Se2 Si6 Sm8,2.5404,173
29774,O14 Ti4 La4,2.746600000000001,227
29775,O16 Ca4 Ga8,2.9772,62
29776,Sb2 P8 O24,0.0,4
29777,Cu10 As4,0.0,15
29778,Si2 Ni4,0.0,194
29779,Eu8 Ba4 Zn4 O20,0.029799999999999827,62
29780,Fe12 C4,0.0,62
29781,Li3 O16 Cu2 W4,0.0,1
29782,S4 K4 Co2,0.0,72
29783,Al24 Mg4 O40,2.9525000000000006,8
29784,Ca18 F40 Pr2,0.021300000000000097,2
29785,Al28 Mg14 O56,3.3267000000000007,1
29786,As19 Li47 Mn5,0.022400000000000198,160
29787,O16 Mg8 Si4,4.497299999999999,74
29788,Li2 Fe8 P6 O24,2.0547000000000004,15
29789,Cr8 O48 P12,0.0,13
29790,Fe4 P8 O28,0.0,14
29791,Cr4 O28 P8,0.34440000000000004,14
29792,O14 P4 Fe2,0.0628,2
29793,Li2 O14 P4 Co3,2.9025999999999996,2
29794,Li4 V2 P4 O16,1.5536,7
29795,O8 Mn4 Ba1,0.008500000000000174,12
29796,Bi12 Mn1 O20,0.0,197
29797,Tl4 Sb16 Na24,0.007400000000000073,15
29798,Mn20,0.0,213
29799,C2 Pb2 O4 Cl2,2.9095999999999997,12
29800,Ti3 O6,3.4299,152
29801,K2 U4 H10 C8 O30,2.117,11
29802,K6 Nd2 H12 C12 O30,3.2029,2
29803,Sn2 S2,1.6680000000000001,39
29804,La24 S16 N12 Cl4,1.2603999999999997,62
29805,Ba36 Fe16 S60,0.046099999999999586,62
29806,Ba2 Co1 F6,0.0,139
29807,Li4 Zr2 F12,5.481199999999999,15
29808,Rb1 Bi1 As6 H24 C8 S12 N2,1.8746,148
29809,H8 C2 N4 O2,4.7048,129
29810,Ca9 Si3 O15,3.2782999999999998,160
29811,Pr24 O44,0.0,14
29812,Na12 Be6 Si12 O36,3.8781,70
29813,Si4 Ag12 O14,0.30810000000000004,13
29814,La16 Ni8 O34,0.2648999999999999,5
29815,Li2 Y2 Mo4 O16,3.3563,2
29816,Ni4 Ag6 O8,0.0,194
29817,Tb6 Cu6 W12 O48,1.2094999999999994,2
29818,Na10 W2 N2 O8,3.0454999999999997,36
29819,V12 O26,0.0,69
29820,Ba6 Fe6 Se14,0.0,186
29821,Cs2 Ag1 Au1 Cl6,0.0,225
29822,Ge3 As4,0.15479999999999983,215
29823,Si16 H96 C32,3.5723000000000003,2
29824,In9 Pt13,0.0,12
29825,Cs6 Mo4 I18,0.9283000000000001,194
29826,Sm1 Ni2 Sn2,0.0,139
29827,Cu2 Se2,0.0,129
29828,Cs2 Li6 Br8,4.0021,26
29829,U12 Co2,0.0,69
29830,Zn4 H32 C16 N32 Cl8,4.4569,14
29831,Ce4 Ga4 Ni4,0.0,62
29832,Rb8 Te4 H24 Se4 O40,3.0242,14
29833,Ba16 Li8 N8,0.0,137
29834,Zn12 S12,1.9806000000000001,160
29835,As1 N1 O2 F6,2.6593,12
29836,Na2 H18 O10,4.042,1
29837,H36 Br4 O16,3.6496,1
29838,Te1 H6 O6,2.2081999999999997,1
29839,H20 Cl4 O24,4.5672999999999995,19
29840,Ca2 H32 O20,3.8400999999999996,1
29841,Ca2 H32 O20,3.4675000000000002,1
29842,Cu1 H12 I4 N4,0.7494999999999999,12
29843,K8 Ge16 Se32,0.0,14
29844,Ba4 Co8 Cl2 O14,0.0,166
29845,Na8 P8 O24,4.7362,88
29846,Ni9 O10,0.0,2
29847,B4 O12 Cu4 Sr2,0.0,121
29848,K8 Pt4 N16 O32,1.9671,14
29849,Bi4 P8 O28,0.0,14
29850,Sb4 P16 O48,0.0,14
29851,Ba2 C2 O6,4.1594999999999995,167
29852,Al1 Ag9 S6,0.7057,1
29853,Mg4 Mo12 Se16,1.1651999999999996,2
29854,As8 Pd10 Pb2,0.0,1
29855,Cu6 Bi1 S6,0.0,1
29856,Li3 Ti6 O12,0.0,1
29857,Zr8 Cd2 O18,2.5416999999999996,12
29858,Na4 Cr13 Se23,0.0,8
29859,Ba4 N2 F2,0.4005000000000001,1
29860,Mg3 Mo12 Se16,0.0,1
29861,Ca16 Zr9 Ta7 N7 O41,2.0888,1
29862,Ba60 Fe28 S100,0.020999999999999908,62
29863,Sb4 P16 O48,0.0,14
29864,Li12 Sb8 P12 O48,3.4734,14
29865,Na8 Al6 Si6 O25,1.4543,1
29866,K5 Sb4,0.0,1
29867,Tl4 Ag32 Te22,0.0,1
29868,Al4 Cd2 Si20 O48,2.3773999999999997,1
29869,K2 Rb4 Mo2 O6 F6,3.0236,1
29870,Ba3 La7 Mn2 Co8 O30,0.0,10
29871,Li3 Ni8 O16,0.0,2
29872,Na6 P4 H8 O14,3.5798999999999994,2
29873,Cu1 Sn1 H12 N2 O6,0.8126,2
29874,Sb4 P6 H6 O18,3.9075999999999995,2
29875,Mg8 H80 C32 N32 O48,4.785,15
29876,Nb4 Co2 O12,1.2889999999999997,12
29877,K2 V6 Cu10 O26,0.0,2
29878,Li4 Mo2 P8 O26,1.8692000000000002,2
29879,Li4 Cr4 P8 O28,3.0921,14
29880,Mn12 Cu6 O24,0.0,156
29881,Li4 W4 O14,3.7139,2
29882,P8 H56 N16 O24,4.5874,14
29883,Al8 P8 H32 C8 N4 O32 F4,5.4001,14
29884,K1 Mg8 Al17 Si19 O72,3.7898,1
29885,Ca4 Hg4 H64 Br16 O32,2.8966000000000003,64
29886,P4 H8 Pb2 O16,4.4499,2
29887,Ni4 H32 Cl8 O16,3.9693,14
29888,Fe2 H16 Cl4 O8,3.7971,14
29889,Mo4 H24 N4 O12 F8,2.7803,15
29890,Li4 Ag4 F12,0.32889999999999997,15
29891,Li4 Cu4 F14,0.005400000000000071,2
29892,Li1 Ag2 F6,0.0,150
29893,Li4 Cu4 S4,1.8048,87
29894,Li2 Cu3 F8,0.3216,2
29895,Ba2 Ca4 I12,3.8794000000000004,7
29896,Ba2 Ca2 I8,3.3933999999999997,74
29897,La1 U1 O4,0.0,123
29898,Li4 Cr2 S6,0.0,12
29899,Li6 Bi2 S6,2.558,161
29900,Li10 In2 O8,2.6407000000000003,59
29901,Gd4 As4 O12,2.1317,14
29902,Ho2 Bi2 O6,2.4719,148
29903,Zr3 N4,0.9843999999999999,166
29904,Ca4 Tm8 O16,3.8132,62
29905,Tm4 Ga4 O12,3.6067,62
29906,Y4 O6,4.4468,167
29907,Sr2 O2,2.5643000000000002,186
29908,Ba3 Si1 O1,0.0,221
29909,Cs2 Be1 O2,2.7782,139
29910,Ca1 Pb1 I4,2.628,65
29911,Ho4 Ga4 O12,3.6065,62
29912,Sr2 Sm4 O8,2.8981000000000003,63
29913,Ga2 Bi2 O6,3.0525,161
29914,Ba4 Bi3 O11,0.0,38
29915,Ba2 Sr4 I12,3.6180999999999996,14
29916,Ca4 Pb4 I16,2.7904999999999998,14
29917,Li8 Cr4 S12,0.0,15
29918,Rb4 H4 O4,3.0781,62
29919,Sr2 La2 Cl10,3.7379999999999995,1
29920,Tm4 Te2 O12,2.45,136
29921,Li4 Ti6 O14,2.4853999999999994,15
29922,Tb4 Nb4 O16,2.8903,14
29923,Zn2 P4 H28 C4 N12 O12,4.9663,43
29924,Li11 Ru8 O24,0.0,1
29925,Li2 Sn2 P8 O24,0.0,1
29926,Bi16 O25,0.0,121
29927,Y2 Ta6 O18,2.1427,1
29928,Yb4 C4 O12,4.696,62
29929,Li2 Cu2 P6 O18,0.17389999999999994,2
29930,Li1 Bi1 P2 O7,3.8071999999999995,1
29931,Li4 Bi4 P8 O28,4.1874,14
29932,Ti6 Sn4 O20,1.6193999999999997,35
29933,Li4 Cu4 P12 O36,0.6400999999999999,57
29934,Li8 Ti4 B8 O24,2.9516,14
29935,Cu8 O7,0.0,1
29936,Cu24 O16 F16,0.0,14
29937,Li16 V4 P8 O32,2.6180999999999996,14
29938,Li8 V4 P8 O28,2.5888999999999998,1
29939,Li4 Fe6 Si12 O32,2.8256,2
29940,Li8 Cr8 P8 O32,2.378,14
29941,V10 W6 O40,1.1635999999999997,2
29942,Li4 Fe2 P4 O16,0.0,14
29943,Mg2 Co2 O6,0.0,148
29944,Li6 Cr3 Ni1 P6 O24,0.33220000000000005,1
29945,Li4 Co1 Cu3 P4 O16,0.0,6
29946,Li14 Mn8 P18 O64,0.8547999999999998,114
29947,Li4 Mn4 P4 O20,0.0,14
29948,Li4 Ni4 P12 O36,2.9939999999999998,2
29949,Li4 Co2 P4 O14,2.8650999999999995,2
29950,Li8 Fe8 Si16 O48,2.9696999999999996,61
29951,F6 Y1 Cs3,5.3385,139
29952,Li10 Sb2 P8 O28,4.290500000000001,2
29953,Li4 Co4 P4 O16,2.6024000000000003,62
29954,Li8 V6 P16 O58,0.7502000000000001,1
29955,Fe3 Co2 Sn1 P6 O24,0.0,146
29956,Li4 P8 W4 O28,3.9162000000000003,14
29957,Li4 P8 W2 O26,2.9840999999999998,2
29958,Li4 Co4 C8 O24,0.7668999999999999,14
29959,P8 H72 C24,4.1735999999999995,62
29960,Li2 Mn6 O12,0.7913999999999999,9
29961,Li15 Fe2 O12,0.011299999999999977,1
29962,Li4 Fe2 P4 O14,4.0613,2
29963,Li4 Ti3 Cr3 Sb2 O16,0.0,8
29964,Li8 Fe8 Si8 O28,2.8384000000000005,14
29965,Li2 Fe8 P6 O24,3.1639999999999997,2
29966,Li6 Fe9 Si6 O24,2.2295999999999996,1
29967,Li8 Fe4 Ni10 O24,0.0,1
29968,Li6 Fe3 Si3 O12,3.2064000000000004,152
29969,Li6 Fe2 Ni8 O20,0.0,10
29970,Li8 Mn10 Fe4 O24,0.9136000000000002,4
29971,Li2 Mn4 P10 O30,4.1771,11
29972,Li12 Mn4 Si24 O60,1.3319,64
29973,V4 H40 C8 O40,2.9130000000000003,14
29974,Li12 Fe12 Si12 O48,3.0214,14
29975,Li12 Fe12 Si12 O48,3.0364,14