Index,Composition,bandgap,spgN
9245,Si4 Bi2 O12,0.0,15
9246,Mg6 Si8 Ni4 O28,0.8382999999999998,15
9247,Zn4 Ag2 W2 O12,0.0,14
9248,Mg4 Ag2 W2 O12,0.0,14
9249,Zn4 Bi2 W2 O12,1.8279999999999994,14
9250,Mg12 Mn8 Ge12 O48,0.28359999999999985,230
9251,Ca8 Fe16 O32,1.5987,1
9252,Y4 Fe13 Si2 Sb2 O28,1.4180000000000006,12
9253,Tc1 N1,0.0,216
9254,Sr3 Sb1 P1,1.0247000000000002,221
9255,Li12 Ge12 Mo8 O48,0.0,230
9256,Mg4 Mn4 O8,1.2435,62
9257,La2 S4,0.0,129
9258,Ba1 La1 Mg6,0.0,8
9259,Li1 Mg6 Bi1,0.0,38
9260,Mg6 Ga1 Cu1,0.0,38
9261,Mg6 Ga1 Cu1,0.0,38
9262,Na1 Mg6 Zn1,0.0,38
9263,Na1 Mg6 Zn1,0.0,38
9264,Ca1 Mg6 Ga1,0.0,38
9265,Na1 Mn1 Se2,0.0,156
9266,Ca1 Mg6 Zn1,0.0,38
9267,Na1 Mg6 Al1,0.0,38
9268,Na1 Mg6 Al1,0.0,38
9269,Ca1 Mg6 Zn1,0.0,38
9270,Mg15 Nb1,0.0,187
9271,Y1 Si2 Ru3,0.0,191
9272,Ti1 Mo2 S4,0.0,12
9273,Tl2 Cd1 Te4,0.07629999999999981,82
9274,Te4 W3 S2,0.0,156
9275,Te4 W3 S2,0.0,187
9276,Mg14 Cr1 Sn1,0.0,187
9277,Mg14 Cr1 Ga1,0.0,187
9278,Mg14 Cr1 Cd1,0.0,38
9279,Mg14 Cr1 Ga1,0.0,38
9280,Na1 Hf1 Mg14,0.0,187
9281,Mg14 Si1 Bi1,0.0,187
9282,Ce1 Mg14 Sb1,0.0,38
9283,Sr1 Ce1 Mg14,0.0,187
9284,Li1 Mg14 Cr1,0.0,38
9285,Li1 Mg14 Nb1,0.0,187
9286,Mg14 Cu1 Si1,0.0,38
9287,La1 Ce1 Mg14,0.0,38
9288,Te4 Mo2 W2 Se2 S2,0.23860000000000037,156
9289,Te4 Mo3 W1 Se2 S2,0.04579999999999984,156
9290,Te4 Mo3 W1 Se2 S2,0.13419999999999987,156
9291,Te4 Mo2 W2 Se2 S2,0.1559999999999997,156
9292,Te4 Mo2 W2 Se2 S2,0.10809999999999986,156
9293,Te4 Mo3 W1 Se2 S2,0.0032999999999998586,156
9294,Te4 Mo2 W2 Se2 S2,0.19500000000000028,156
9295,Te4 Mo2 W2 Se2 S2,0.11509999999999998,156
9296,Te4 Mo3 W1 Se2 S2,0.26639999999999997,156
9297,Te4 Mo3 W1 Se2 S2,0.19159999999999977,156
9298,Te4 Mo2 W2 Se2 S2,0.0,156
9299,Te4 Mo3 W1 Se2 S2,0.0,156
9300,Te4 Mo3 W1 Se2 S2,0.0,156
9301,Sr1 Mg14 Zn1,0.0,187
9302,Mg14 Mn1 Sb1,0.0,187
9303,Mg14 Mn1 Cu1,0.0,187
9304,Ca1 Mg14 Sb1,0.0,38
9305,Mg14 Mn1 Cu1,0.0,38
9306,Hf1 Mg14 Al1,0.0,38
9307,Ca1 La1 Mg14,0.0,38
9308,Ca1 Mg14 Ni1,0.0,38
9309,Y1 Mg14 Co1,0.0,38
9310,Mg14 Si1 Sn1,0.0,38
9311,Mg14 Cd1 Co1,0.0,38
9312,Te4 Mo2 W2 Se2 S2,0.0,156
9313,Te4 Mo2 W2 Se2 S2,0.12670000000000003,156
9314,Te4 Mo2 W2 Se2 S2,0.1192000000000002,156
9315,Te4 Mo2 W2 Se2 S2,0.03780000000000028,156
9316,Te4 Mo2 W2 Se2 S2,0.0,156
9317,Te4 Mo3 W1 Se2 S2,0.10760000000000014,156
9318,Te4 Mo2 W2 Se2 S2,0.0,156
9319,Te4 Mo3 W1 Se2 S2,0.3123,156
9320,Na1 Mg6 Cr1 O8,1.2305000000000001,123
9321,Sr1 Mg14 V1 O16,1.3404999999999996,123
9322,Li1 Hf1 Mg14 O15,0.0,25
9323,Y1 Mg14 Cu1 O16,0.26949999999999985,123
9324,Sr1 Mg14 Mn1 O16,1.5666000000000002,47
9325,Mg14 Al1 Cr1 O16,0.3287999999999993,47
9326,Hf1 Mg30 Zn1 O32,0.5879000000000012,123
9327,Hf1 Mg30 Zn1 O32,0.4775000000000009,123
9328,Mg30 Zn1 Si1 O32,1.9480999999999993,123
9329,Hf1 Mg30 Fe1 O32,0.0343,123
9330,Mg30 Zn1 Si1 O32,1.9690000000000003,123
9331,Rb1 Y1 Mg30 O32,4.0001,123
9332,Hf1 Mg30 Mn1 O32,0.06219999999999892,123
9333,Ca1 Mg30 Bi1 O32,0.08929999999999971,123
9334,Hf1 Mg30 Mn1 O32,0.3238000000000003,123
9335,Mg30 Al1 Si1 O32,0.5449999999999999,123
9336,Mg30 Al1 Sn1 O32,0.053500000000001435,123
9337,Hf1 Mg30 Cr1 O32,0.014200000000000657,123
9338,Mg6 Bi6,0.0,38
9339,Ce1 Mg3,0.0,221
9340,Ce6 Mg2,0.0,44
9341,Ca3 Mg1,0.0,187
9342,Ce4 Mg8,0.0,63
9343,Mg30 Cr1 Si1 O32,1.841400000000001,123
9344,K1 Mg30 Sb1 O32,1.9784000000000006,123
9345,K1 Mg30 Bi1 O32,2.481,123
9346,K1 Mg30 Si1 O32,0.4369999999999994,123
9347,K1 Ce1 Mg30 O32,0.0,123
9348,Ca2 Sb6 P6 O26,2.2528000000000006,11
9349,Ca6 Ni12 O24,0.0,1
9350,Zn4 Cr8 Cu8 O32,0.274,14
9351,Mn2 Al2 W4 O16,0.0,13
9352,Sn2 W4 O16,2.6737,13
9353,Y2 W6 F30,3.4276999999999997,11
9354,Ba1 Y1 Cu1 Bi1 O5,0.0,99
9355,Ca8 Ti8 Bi8 O40,0.0,61
9356,Ca8 Co8 Bi8 O40,0.0,61
9357,Ca4 Ge8 W4 O24,1.4198999999999997,14
9358,Mg4 Bi8 O20,0.5458000000000003,14
9359,Cr4 Ni4 P8 O36,0.0,6
9360,Zn4 Ag4 Bi4 O20,0.3505999999999998,14
9361,Ca2 Co4 P4 O20,0.0,43
9362,Pr2 Mg2 Ag4 O12,0.0,31
9363,Pr2 W4 O12,1.6166,1
9364,Y2 Mn4 O8,1.1057000000000001,15
9365,Y2 Fe4 O8,1.8529000000000004,15
9366,Ca4 Nb4 Co2 O16,2.6971,1
9367,Sr4 Y4 Fe4 O14,1.0278,46
9368,Ca4 Sb4 As4 O20,3.1,19
9369,Sr4 Y4 Co4 O14,0.19070000000000054,46
9370,Mg2 Mn1 W1 O6,2.9569,1
9371,Y2 Bi6 F30,0.9658,11
9372,Ba2 Y1 Ti3 O7,0.0,47
9373,Sr4 Al2 Ga2 Cu4 O14,0.011400000000000077,1
9374,Sr4 Ga2 Bi4 O14,0.0,5
9375,Ca2 La2 Cr2 Sb2 O12,0.6528999999999998,7
9376,Ca2 Mn4 O8,0.0,160
9377,Ca2 V4 O8,1.6522000000000001,160
9378,Zn4 Cu8 P8 O36,0.0,11
9379,Y2 I2,0.0,164
9380,Ge2 S4,0.9558,137
9381,Ba24 Sr8 Cu32 O80,0.0,1
9382,La28 Sm4 Cr4 Fe28 O80,0.8537999999999997,1
9383,Li2 Fe2 P2,0.0,63
9384,Na1 U1 O4,0.0,166
9385,Yb3 Mg3 Pb3,0.0,38
9386,Ce2 Fe2 As2 O2,0.0,129
9387,U2 Al4 Au4,0.0,129
9388,Tl6 Au2,0.0,223
9389,Zn6 Ga12 S24,1.5709000000000004,15
9390,Mn3 In1 C1,0.0,221
9391,La4 Mg8,0.0,12
9392,La2 Mg10,0.0,8
9393,La12 Mg6,0.0,155
9394,Mg5 Ti1,0.0,187
9395,Y2 Mg6,0.0,44
9396,Y4 Mg4,0.0,12
9397,Mg6 Zn6,0.0,38
9398,Mg6 Sb2,0.0,139
9399,Mg1 Ti3,0.0,187
9400,Y3 Mg1,0.0,25
9401,Mg5 Bi1,0.0,189
9402,Al8 Zn4 S16,2.1875,62
9403,La1 Ga1 O3,0.00020000000000042206,221
9404,Rb1 Mg30 Ti1 O32,0.0,123
9405,Mg14 Co1 Sn1,0.0,187
9406,Mg6 Fe1 Ni1 O8,0.0,123
9407,La4 Mn4 O10,0.04209999999999958,46
9408,La28 Sm4 Mn28 Fe4 O80,0.001300000000000523,1
9409,Sr2 Ca6 Mn7 Fe1 O24,0.0,38
9410,Ba28 Sr4 Cu32 O80,0.0,1
9411,Sr4 Ca4 Co6 Cu2 O24,0.0,6
9412,La7 Sm1 Mn8 O24,0.0,221
9413,Ca12 Sn12 S36,1.7606999999999995,2
9414,Ca2 Sn4 S10,0.8268999999999997,2
9415,Mg12 Si12,0.0,11
9416,Li9 Mn2 Co5 O16,0.0,6
9417,Li9 Mn2 Co5 O16,0.0,8
9418,Li9 Mn2 Co5 O16,0.0,8
9419,Li9 Mn2 Co5 O16,0.0,10
9420,Li9 Mn2 Co5 O16,0.0,10
9421,Zn8 Co16 O32,0.0,160
9422,Y2 Zr2 O7,4.4356,12
9423,V6 Si6 O20,0.4497,2
9424,Ti4 O6,0.16190000000000015,11
9425,Tb4 Pr4 O16,0.0,14
9426,Ti2 Mn4 O12,1.3970999999999998,64
9427,Sr4 Ca2 I12,3.2605,15
9428,Ti3 Ni1 Sb2 P6 O24,0.0,146
9429,V2 Co6 O16,0.2892000000000001,9
9430,Li14 Mn2 As8,0.0,137
9431,Cu4 Cl4 O4,0.20120000000000005,14
9432,Ni1 N6 O4,1.8343,12
9433,Ce4 Ni4 Pt4,0.0,62
9434,Nb2 Cu3 O8,0.0,2
9435,Yb4 Ge2 Se8,1.0972,11
9436,Li2 Zn2 I2 O8,2.883,40
9437,Sr1 Nb5 Se8,0.0,12
9438,Cs2 Na1 Au1 Br6,0.0,225
9439,Rb2 Na1 Mo1 I6,1.0856000000000001,225
9440,K2 Cu1 Mo1 Br6,0.3589,225
9441,K2 Cu1 Bi1 I6,0.3239000000000001,225
9442,K2 Pr1 Ag1 I6,2.5488,225
9443,K2 Li1 Au1 F6,0.44989999999999997,225
9444,K3 Tl1 Br6,1.406,225
9445,K2 Na1 In1 I6,0.6835,225
9446,Cs1 Rb2 Tl1 Br6,1.7076,225
9447,K2 Hg1 Bi1 I6,0.0,225
9448,K2 Al1 Ag1 Br6,1.2041,225
9449,K2 Hg1 As1 Cl6,0.0,225
9450,K2 Pr1 Cu1 Cl6,2.1447000000000003,225
9451,K2 La1 Cu1 Cl6,2.1312,225
9452,K2 Ga1 Hg1 F6,0.0,225
9453,Cs2 In1 Au1 Cl6,0.0,225
9454,Cs2 Y1 Au1 Br6,1.65,225
9455,Cs2 Hg1 Sb1 F6,0.0,225
9456,Cs2 Al1 Au1 F6,1.5221,225
9457,Cs2 Cu1 Mo1 Cl6,0.7099000000000002,225
9458,Cs2 Ga1 Hg1 Br6,0.0,225
9459,Rb3 Au1 F6,0.738,225
9460,K1 Rb2 Ga1 Br6,2.0358,225
9461,Rb2 Al1 Tl1 I6,1.5894000000000001,225
9462,Cs3 Ga1 I6,1.1753,225
9463,Cr4 O10,1.7574999999999998,59
9464,Cu1 F2,0.0,139
9465,Y1 Rh5,0.0,191
9466,Nd22 Ti32 O96,0.0,38
9467,Li3 Mn1 Co2 O6,0.22440000000000015,2
9468,Li5 Mn1 Co2 O8,0.0,10
9469,Li6 Co4 O10,0.0,12
9470,Li6 Mn2 Co2 O10,0.19830000000000014,12
9471,Li7 Co5 O12,0.22409999999999997,2
9472,Li8 Mn2 Co4 O14,0.1977000000000002,2
9473,Li8 Mn2 Co4 O14,0.3860000000000001,12
9474,Li8 Mn2 Co4 O14,0.40439999999999987,12
9475,Li8 Mn2 Co4 O14,0.3717999999999999,12
9476,Li8 Mn2 Co4 O14,0.0,2
9477,Li8 Mn2 Co4 O14,0.0,12
9478,Li8 Mn2 Co4 O14,0.0,12
9479,Li5 Mn3 O8,0.0,10
9480,Li8 Mn2 Co4 O14,0.0,1
9481,Li5 Mn3 O8,0.0,2
9482,Li8 Mn2 Co4 O14,0.0,8
9483,Li8 Mn2 Co4 O14,0.0,8
9484,Li8 Mn2 Co4 O14,0.14570000000000016,8
9485,Li8 Mn2 Co4 O14,0.0,8
9486,Li7 Mn2 Co3 O12,0.3203999999999998,10
9487,Li7 Mn2 Co3 O12,0.35840000000000005,10
9488,Li7 Mn2 Co3 O12,0.0,8
9489,Li7 Mn2 Co3 O12,0.0,8
9490,Li7 Mn2 Co3 O12,0.0,8
9491,Li7 Mn2 Co3 O12,0.0,8
9492,Li7 Mn2 Co3 O12,0.0,8
9493,Li7 Mn2 Co3 O12,0.0,8
9494,Li7 Mn2 Co3 O12,0.0,8
9495,Li7 Mn2 Co3 O12,0.0,8
9496,Li7 Mn4 Co1 O12,0.0,1
9497,Li9 Co7 O16,0.26659999999999995,2
9498,Li9 Co7 O16,0.29499999999999993,12
9499,Li9 Mn2 Co5 O16,0.6322999999999999,5
9500,Li9 Mn2 Co5 O16,0.22529999999999983,2
9501,Li9 Mn2 Co5 O16,0.0,2
9502,Li9 Mn2 Co5 O16,0.3111999999999999,1
9503,Li9 Mn2 Co5 O16,0.09580000000000011,1
9504,Li9 Mn2 Co5 O16,0.4769000000000001,1
9505,Li9 Mn2 Co5 O16,0.23209999999999997,1
9506,Li9 Mn2 Co5 O16,0.3716000000000004,12
9507,Li9 Mn2 Co5 O16,0.0,1
9508,Li9 Mn2 Co5 O16,0.1878000000000002,1
9509,Li9 Mn2 Co5 O16,0.0,12
9510,Li9 Mn2 Co5 O16,0.0,12
9511,Li9 Mn2 Co5 O16,0.0,12
9512,Li9 Mn2 Co5 O16,0.0,1
9513,Mn12 O2 F22,0.0,35
9514,Mg1 Re1 O4,0.1642999999999999,65
9515,Mn3 Ni1 Sn2 P6 O24,0.00890000000000013,146
9516,Li4 Mn4 P16 O48,0.0,60
9517,Li4 Cu8 P4 O16,0.6647999999999996,1
9518,Li7 Mn1 Co3 P6 O24,0.0,146
9519,Li14 V8 C20 O60,1.1509,4
9520,Li5 V3 Bi2 P6 O24,0.2992999999999997,1
9521,Li4 Nb3 Cr3 Ni2 O16,0.4327000000000001,8
9522,Li4 V3 Co1 O8,0.7262000000000004,2
9523,Li8 Ti8 Cr8 Ni2 O36,0.0,55
9524,Li4 Fe2 Ni3 Te1 P6 O24,2.8661,1
9525,Li12 Ti8 P12 O48,0.011399999999999189,13
9526,Li8 Mn10 Fe8 O36,0.08499999999999996,6
9527,Li6 Mn6 Co2 O16,0.5283000000000002,36
9528,Li3 Mn2 Sb1 O6,0.3059000000000003,12
9529,Li6 Fe2 O2 F6,3.4235999999999995,12
9530,Li3 Co8 O4 F12,0.45929999999999993,1
9531,Li6 Cr8 P12 O48,0.0,1
9532,Li6 Mn6 Co2 O16,0.3456999999999999,1
9533,Li8 Ti4 Co12 O32,0.5080999999999998,1
9534,Li4 Ni6 B6 O18,0.0,6
9535,Li2 Mn1 V3 O8,0.0,8
9536,Li8 Cu4 S8,0.0,25
9537,Ho4 Tm4 O12,4.4954,62
9538,Ga4 Ni2 O8,2.2446999999999995,141
9539,Fe10 O14 F6,0.0,31
9540,Fe6 O5 F7,1.1243,1
9541,Fe8 O6 F10,1.2504000000000002,7
9542,Fe6 O8 F4,0.0,31
9543,Eu4 Tm4 O12,0.0,62
9544,Co6 O6 F6,0.0,6
9545,Ce2 Y2 O7,1.8276,115
9546,Ba2 Ca2 I8,2.7054000000000005,140
9547,Yb4 Be4 F16,6.690899999999999,2
9548,Tl8 O8,0.0,5
9549,Sr4 I8 O4,1.8759000000000001,6
9550,Sc1 Cd1 Cu3 Se4,0.6666000000000003,215
9551,K4 Ti4 O12,0.0,194
9552,K1 Hf1 Cu3 Se4,1.2853999999999999,215
9553,K10 U4 O8 F18,2.6395,15
9554,Cr2 I4,0.0,36
9555,Fe24 O32,0.8246000000000002,1
9556,Cr13 Ga13,0.0,166
9557,Al4 O6,4.5885,15
9558,Ac1 Ce1 Mg2,0.0,225
9559,Co1 Rh3,0.0,221
9560,Ce1 Pr3,0.0,221
9561,Dy3 Zr1,0.0,221
9562,Er3 Hg1,0.0,221
9563,Eu1 Ag3,0.0,139
9564,Eu6 Bi2,0.0,194
9565,K2 Ba6,0.0,194
9566,La6 Eu2,0.0,63
9567,Mg16 Al12 Ir1,0.0,160
9568,Mg16 Al12 P1,0.0,160
9569,Mg1 Ni5,0.0,155
9570,Na3 Mg1,0.0,221
9571,Na3 Yb1,0.0,225
9572,Na6 Yb2,0.0,194
9573,Mo1 Pb1 O3,0.0,123
9574,Sn2 Hg6,0.0,63
9575,Sr6 Ac2,0.0,194
9576,Sr2 Ac6,0.0,194
9577,Ta1 Ti3,0.0,221
9578,Tb3 Pb1,0.0,139
9579,Ti3 Cd1,0.0,221
9580,Y2 Al1 Ru1,0.0,225
9581,Cu2 Pb2 S2 O12,0.0,11
9582,La10 Fe2 Pb6,0.0,193
9583,Ti4 Fe2 B4 Rh10,0.0,127
9584,Fe2 Si2 Ag4 S8,0.0,7
9585,K3 C6 N9 O1,2.6536999999999997,1
9586,Nd2 Fe17 H3,0.0,166
9587,Yb4 H8 Cl4 O8,0.15759999999999996,62
9588,Na2 Al1 P4 O14,0.23490000000000003,2
9589,Tm4 C4 O16,0.7431999999999999,19
9590,Tl4 Hg4 As4 S12,0.17499999999999982,121
9591,Hg4 Cl4 O16,0.05599999999999994,57
9592,Mn4 Fe8 O16,0.5090000000000003,57
9593,Cr4 Bi4 O20,0.06710000000000016,14
9594,La6 Fe2 W2 S6 O12,0.20420000000000016,176
9595,Yb12 O16,0.0,62
9596,Na4 Mn4 H12 C12 O24,3.9398,198
9597,Tm2 H18 C10 N4 O16,4.6057,20
9598,Cd4 H28 C12 N4 O24,4.7501999999999995,33
9599,U4 Bi16 As8 O64,0.5433999999999999,57
9600,Mn4 Cu8 P8 O36,0.0,14
9601,K8 Ru4 N20 O40,0.1543,14
9602,Rb4 Sb16 S28 O4,1.1056,14
9603,As8 H24 C8 O16 F48,5.19,61
9604,Na8 Zn4 P4 O20,0.24070000000000003,14
9605,Sr8 Fe5 Re5 O28,0.0,123
9606,Cu2 H28 C8 N8 O16,0.05159999999999998,14
9607,B32 P8 H156 Rh4 C52,2.2866999999999997,14
9608,K4 V6 P8 O40,0.054900000000000004,2
9609,Hg6 Se8 O24,0.1443,14
9610,Cu4 H32 S12 O40,0.716,14
9611,Cs4 Ca2 Ag4 H8 C12 S12 N12 O4,3.2686,14
9612,Tm8 Co2 B26,0.0,128
9613,Be2 H32 C8 S4 Cl4 O8,4.3636,2
9614,Mg4 P12 H64 C12 N4 O48,5.5515,14
9615,K8 Ti4 O12 F16,0.17909999999999998,15
9616,Fe2 B20 H52 O16,4.3072,15
9617,As4 C12 S12 N4 F44,0.5470999999999999,14
9618,Zn4 H32 N24 O48,3.2466999999999997,2
9619,K3 Sm1 F6,5.604,225
9620,Sr2 Ho1 U1 O6,0.8516999999999992,225
9621,Ce1 Al2 Cu3,0.0,191
9622,Sm2 Ge6 Au1,0.0,38
9623,Yb1 U2 S3 O2,0.0,139
9624,Tl2 Co1 F4,0.0,139
9625,Mg2 Bi3,0.0,164
9626,Mn1 Hg3 F6,0.0,2
9627,Zn8 B4 O16,0.0,62
9628,Zr10 V12 Sb36,0.0,122
9629,Yb2 Al6 C6,0.0,194
9630,Zn4 H28 C16 N12 O28,3.6015,14
9631,Yb8 Eu4 O16,0.0,62
9632,Sr4 Ca2 Cu4 Bi4 I2 O16,0.0,53
9633,Sm8 Mn2 S14,1.1396000000000002,173
9634,Na4 Tl8,0.0,227
9635,Nd4 Mo4 O20,0.0801,14
9636,Na3 Nd1 As2 O8,3.1973000000000003,164
9637,Na8 Sn4 Ge10 H2 O32,2.1367000000000003,3
9638,Na4 Nd4 Se8 O40,0.6056,14
9639,Mg1 Sb2 F12,4.2188,115
9640,Li2 B11 H11,3.9794,5
9641,Mg2 Ti5 P6 O24,0.0,2
9642,Mn4 H28 C16 N12 O28,2.7056,14
9643,Cu4 In2,0.0,194
9644,K8 H4 Ru4 Cl20,0.0017999999999999683,62
9645,Ho4 Fe34 N6,0.0,194
9646,Er4 Mo4 O20,0.0,14
9647,K8 Be12 Co8 F48,0.005099999999999993,198
9648,Gd6 Cu22 Si8,0.0,194
9649,Ce4 Re6 O19,0.0,197
9650,Al12 B10 O36,0.43389999999999995,176
9651,Ag16 Hg2 As4 O20,0.0,159
9652,Zr1 Mo1 C2,0.0,166
9653,Yb2 Al6 C6,0.0,186
9654,Zr3 Mn1 Co8,0.0,160
9655,Zn4 Mo2 W4 O16,1.6287000000000003,1
9656,Y1 Ho3 C8,0.0,123
9657,Y4 Al4 Ni4,0.0,38
9658,K2 Sr1 Cu1 N6 O12,0.23960000000000004,69
9659,Zn1 Fe1 Mo12 S16,0.0,148
9660,V1 Ga1,0.0,187
9661,V2 Fe2 Co2 O8,0.47550000000000026,74
9662,V5 W3 O20,1.1065,1
9663,Tl1 As1 Pd6,0.0,166
9664,Tm4 Cr1 Se7,0.0,8
9665,V4 N1 O11,0.0,8
9666,U2 Al3 Cu7,0.0,10
9667,U4 P4 Br4 O24,0.027700000000000058,82
9668,Tb4 Cu5 P7,0.0,107
9669,Sr2 Si3 Ni1,0.0,187
9670,Sr2 Fe1 Bi1 Pb1 O6,0.0,107
9671,Sm1 Mn1 Co3 Cu1,0.0,187
9672,Sm2 Sb1 S1,0.0,123
9673,Sm2 O1,0.0,123
9674,Sm2 Co5 Cu5,0.0,47
9675,Sc1 Mn2 Ga3 S8,0.0,6
9676,Rb1 Co1 Cu1 S2,0.0,119
9677,Pr1 Nb4 O12,0.0,38
9678,Pu13 Al13,0.0,160
9679,Nb6 Si1 Ge1,0.0,200
9680,Nb6 Al1 Si1,0.0,200
9681,Nd4 Ga17 Ni2,0.0,44
9682,Na1 Nd1 S2,0.36540000000000017,123
9683,Na2 Ca2 Sb4 O14,0.0,74
9684,Na2 Mn1 Ni1 O4,0.0,166
9685,Na8 Pr4 O12,0.0,15
9686,Na12 Fe8 P8 O40 F4,0.0,58
9687,Na4 Np12 Fe4 F60,0.07959999999999967,9
9688,Mn1 Al1 V2,0.0,119
9689,Mn7 Sn1 N2,0.0,123
9690,Mg1 Zn2 O3,1.7099000000000002,164
9691,Mo6 As4 O30,1.1186,9
9692,Mg1 Cd1 S2,0.7236000000000002,123
9693,Lu1 Fe1 Cu1 O4,0.0,160
9694,Li1 As1 Se2,0.2023999999999999,123
9695,Li1 V3 O4,0.01839999999999975,139
9696,Li3 Al1 Co2 O6,0.9165999999999999,164
9697,La1 Ce1 Mn2 O6,0.0,155
9698,La3 Al1 Fe4 O12,1.4352999999999998,6
9699,K2 Sr4 Nb8 Fe2 O30,0.0,100
9700,Ho4 Al4 Ni4,0.0,38
9701,Ho4 Al4 Ni4,0.0,38
9702,Ge1 As3,0.0,160
9703,Ge1 Au3,0.0,187
9704,In1 Fe1 Cu2 Te4,0.0,82
9705,Ga2 Bi1 As1,0.0,160
9706,Er1 Al6 Cr6,0.0,71
9707,Fe3 Si1,0.0,123
9708,Dy4 Al4 Ni4,0.0,38
9709,Dy4 Al4 Ni4,0.0,38
9710,Cu1 Pd1,0.0,65
9711,Cu4 Au1,0.0,166
9712,Cu4 Se3,0.0,166
9713,Co1 Ir1,0.0,166
9714,Cr1 Fe2 Se4,0.0,8
9715,Co1 Ni1 Pt2,0.0,160
9716,Co1 Ni1 P2 S6,0.0,5
9717,Co2 H30 Br4 N12 O4,0.984,9
9718,Ce1 Cu1 Si2 Ru1,0.0,119
9719,Co2 H30 Br4 N12 O4,1.0339,2
9720,Co2 H30 N12 Cl4 O4,1.0814,9
9721,Cd1 Fe1 P2 S6,0.24929999999999986,5
9722,Ce4 Sn1 O10,1.4385999999999992,71
9723,Ce1 Ga1 Pt4,0.0,187
9724,Be4 Co1 Ge1,0.0,216
9725,Be1 Co2 Ge1,0.0,123
9726,Ca1 Mn2 V4 Cu1 O12,0.0,71
9727,Co2 H30 N12 Cl4 O4,1.0913,2
9728,Bi14 Mo1 O24,0.0,87
9729,Ca3 Ru4 O14,0.0,166
9730,Ba4 Nb3 Se12,0.0,10
9731,Ba2 La2 Fe2 Cu2 O11,0.0,25
9732,K4 Cr2 Mo12 H38 O64,0.6588999999999999,2
9733,Al1 Fe4,0.0,69
9734,Ag1 Bi1 Se1 S1,0.0,123
9735,Al8 Cu4 Si8 O32 F4,0.25550000000000006,14
9736,Cd12 Se16,0.38060000000000005,8
9737,Li6 B6 H32 N4,5.9495000000000005,4
9738,O3 Nb1 Ag1,1.3296000000000001,221
9739,B4 O4 F12 Ba4,5.8868,62
9740,O6 Sr2 Gd1 Re1,0.0,225
9741,F6 Ti1 Tl3,0.0,225
9742,Mo4 S6,0.0,11
9743,O4 F16 U4,1.9952999999999999,122
9744,Sc2 Zn2 Mo6 O16,0.8052000000000001,186
9745,Mn4 Ge4 Y4,0.0,62
9746,Be1,0.0,229
9747,Co4 In2 U4,0.0,127
9748,Ge2 Ce1 Pt2,0.005600000000000271,139
9749,Ca2 Mn2 Ge2,0.0,129
9750,Si4 Co4 U4,0.000700000000000145,62
9751,S8 Cr4 Fe2,0.0,227
9752,Mn2 Ge2 Np1,0.001000000000000334,139
9753,Al2 Co4 U4,0.0,127
9754,Cl6 Fe2,0.0,148
9755,H24 C4 N12 O4 Cl4,5.2019,19
9756,N6 O12 K2 Co1 Ba1,0.0,202
9757,Li2 C2 O14 P2 Ni2,0.0,4
9758,O12 Na8 Pr4,0.0,15
9759,F12 I4,2.1132,62
9760,Cs2,0.0,141
9761,O8 I2 Tl2,2.0027999999999997,88
9762,O4 Co1 Re1,0.0,65
9763,Fe8 P12 O48,0.0,14
9764,Ni2 P8 O24,0.4399,15
9765,O24 P8 Ni2,0.0,9
9766,O22 P6 Ni4,0.0,15
9767,O32 P10 Ni4,0.02250000000000002,13
9768,La5 S8,0.0,82
9769,Li4 P20,0.5134999999999996,33
9770,Mg2 S8 Tm4,2.3768000000000002,122
9771,Li2 Mn15 O32,0.0,160
9772,Cd2 S8 Sm4,1.7573999999999996,122
9773,Ti2 Nb2 N4,0.0,141
9774,Cd2 Nd4 Se8,0.9937000000000005,122
9775,Cd2 Pr4 S8,1.6469999999999998,122
9776,Cd2 Nd4 S8,1.6895999999999995,122
9777,Dy10 O27 Ti6,2.5756,8
9778,Ba1 Bi1 La1 Mg1 O6,1.2851999999999997,216
9779,Si2 Pt2 Th1,0.0,139
9780,O64 P18 Cr8,0.0,114
9781,Cu9 Fe9 S16,0.0,111
9782,Er8 Ni2 B26,0.0,128
9783,Li40 Pb12,0.0,215
9784,Cs4 Dy4 I12,0.0,62
9785,O2 Mn2 Sb2 Sm2,0.0,129
9786,O14 P4 Co2,0.0,2
9787,O14 P4 V2,1.1998999999999997,2
9788,O14 P4 Fe2,0.0,9
9789,O1 Cl2 V1,1.2211,71
9790,Ni1 O2,1.4616999999999998,164
9791,Sm4 O4 I2,0.0,12
9792,Na2 Ag2 N4 O8,2.1127,22
9793,Nd4 Te4 Br4 O12,0.3353999999999999,129
9794,Si4 O8,5.1327,5
9795,Nb4 Ag4 O12,0.8148999999999997,63
9796,Y2 H48 C18 N12 Cl6 O6,4.636900000000001,148
9797,K8 Hg12 S12 O40,2.3637,62
9798,P2 Mn2 Sr1,0.0,164
9799,Sb2 P2 Cl8 F12,4.487299999999999,85
9800,P8 H68 C16 N4 O32,4.9940999999999995,14
9801,Sb8 S8 N8 Cl40,1.7869,122
9802,Ge1 Pb3 O5,1.6284,3
9803,K8 Mo4 H8 C8 O32,3.1134,14
9804,Nb10 Si6,0.0,193
9805,Lu8 Ni8 Ge8,0.0,63
9806,Al14 C6 N6,0.0,36
9807,Gd1 Ni2 Sb2,0.0,139
9808,Pr1 Al3,0.0,221
9809,Er2 Mn4,0.0,227
9810,H64 C24 S8 N16,3.5295,61
9811,Cs2 Ni2 F6,4.3878,194
9812,Cs3 Co3 F9,0.0,166
9813,Mo2 H1 O6,0.0,6
9814,As12 H4 O24,3.0456,7
9815,Ti6 H4 O14,2.9330000000000003,1
9816,Zn1 H8 N4 Cl2,4.5084,12
9817,Ti2 Zn2 O6,3.1673,2
9818,Tm1 H3 C3 O6,3.9339000000000004,160
9819,Mn8 Bi8 O24,0.7650999999999994,14
9820,Ge8 Ru4 C16 Cl24 O16,3.3452,4
9821,Ba8 Nb64 O112,0.30290000000000017,61
9822,Sb8 Se12,0.4902000000000002,62
9823,Nd1 Zr9 O20,0.0,1
9824,Na6 Nd10 Cl30,0.0,2
9825,Zr9 Sc1 O20,0.0,1
9826,Ba1 Fe2 S4,0.0,1
9827,Rb2 Bi3 F11,3.8503000000000003,1
9828,Tl12 Cu6 F18,1.7879,2
9829,Ca2 Zr8 O18,2.2314000000000003,12
9830,Er2 Zr8 O19,2.4171,1
9831,Na8 Ta8 O24,3.3421000000000003,1
9832,Gd4 Cd2 S8,1.4040999999999997,122
9833,Na4 Ca4 Al12 Si12 O48,3.4730999999999996,1
9834,Li17 Ti20 O40,0.0,6
9835,Li6 Bi6 P16 O58,0.3196,1
9836,Cu29 Se19,0.0,160
9837,Tb22 Cu2 Se32,0.0,18
9838,Ca2 Nb4 Ga4 Cu6 O24,0.2576999999999998,201
9839,Ti4 Fe8 O18,0.9363000000000001,1
9840,Ca4 Ta8 Ga8 Cu12 O48,0.3562000000000003,2
9841,Yb9 H24,0.0,12
9842,Cu2 H72 C16 N20 O16,0.8099999999999999,15
9843,Mn30 Ge12,0.0,158
9844,Bi28 Mo2 O48,0.0,2
9845,Al24 Fe12 O48,0.5154000000000005,156
9846,H48 Pd2 C16 N4 Cl8,1.8282,136
9847,Te1 Pr1,0.0,221
9848,Li20 Ge2 P4 O24,4.4921,1
9849,Mg14 Si8 H4 O32,3.8438,51
9850,Li6 Cu2 F8,0.9630999999999998,31
9851,Li4 Sb1 Te3 O12,0.0,1
9852,Li4 Cu4 B4 O12,0.03200000000000003,9
9853,Li12 Bi4 S12,0.9889999999999999,14
9854,Sb4 O4 F4,2.9618999999999995,62
9855,Ba2 Ca4 I12,3.3853,14
9856,Ba1 Ca1 I4,2.7144999999999997,1
9857,Gd2 As2 O8,2.6976000000000004,74
9858,Li12 Cr2 S8,0.0,137
9859,Ho4 Ti2 O10,2.9404999999999997,15
9860,Dy4 Nb4 O14,0.0,227
9861,Tb4 Nb4 O14,0.0,227
9862,La4 Ti6 O18,2.0596,197
9863,Ba4 Y4 I20,2.7805,19
9864,Hf8 N8 O4,2.0601000000000003,13
9865,Sm1 Y1 O2,0.0,166
9866,Sr4 Ca4 I16,3.0182,12
9867,Bi4 Se2 O12,0.6426999999999996,64
9868,Ca2 As2 H10 O12,3.5906,9
9869,Na6 Bi2 As2 C2 O14,0.34330000000000016,11
9870,Y4 Er4 O12,4.5443999999999996,62
9871,Sm2 Tl2 O4,1.7431,194
9872,Dy4 Sb4 O14,0.0,227
9873,Y1 Tl1 O2,1.4748000000000006,166
9874,Ca2 La4 I16,2.4684,15
9875,Tb4 Ho4 O12,4.4709,62
9876,Li4 Sn2 B4 O12,2.3637,2
9877,Na4 Be4 O6,3.0523000000000002,14
9878,Li10 Bi2 S8,1.5786000000000002,59
9879,Li4 Cu2 As2 O8,1.2786999999999997,4
9880,Li2 Cu2 Si4 O10,1.9425999999999997,4
9881,Er4 Nb4 O14,0.0,227
9882,K6 Sb2 P2 C2 O14,0.5536999999999996,11
9883,Tm4 Nb4 O14,0.0,227
9884,Yb2 Na2 O4,0.0,141
9885,Li12 Sb4 O12,3.2818,198
9886,Li2 Si6 Bi2 O16,3.0538000000000003,1
9887,Li4 Nb4 P4 O20,0.0,1
9888,Li4 Sn4 P12 O36,3.8805,19