Index,Composition,bandgap,spgN
12948,Li2 Mn2 P4 O16,0.5891000000000002,14
12949,Li2 Mn2 P4 O16,0.23919999999999997,15
12950,Li4 Mn3 Sb1 P4 O16,0.27280000000000015,6
12951,Li6 V2 P2 C2 O14,3.0435,4
12952,Li14 Sb4 S4,0.3237000000000001,2
12953,K6 Bi2 P2 C2 O14,0.4455,11
12954,Li20 Sb4 S4,1.2902,4
12955,Li6 V6 Si6 O24,0.14389999999999992,148
12956,Li36 Sb12 S4,0.0665,14
12957,Li28 Sb8 S4,0.0,14
12958,Li8 Ti1 Mn3 O12,1.3066,1
12959,Li4 Mn8 O4 F20,0.0,29
12960,Li12 Mn2 O6 F6,2.1,1
12961,Li4 V2 Si12 O30,2.041,9
12962,Li4 V2 C4 O12,2.8202,1
12963,Li12 V4 P4 C4 O28,3.2087,14
12964,Li12 V4 P4 C4 O28,3.1653,14
12965,Li12 V4 P4 C4 O28,3.2070000000000003,14
12966,Li8 Si16 Ni4 O40,3.8893999999999997,19
12967,Li12 V4 P4 C4 O28,2.4336,1
12968,Li6 Si6 Ni9 O24,3.1088999999999998,1
12969,Li12 Sb4 S12,2.2473,198
12970,Li12 V4 S16,0.9411999999999998,14
12971,Ti8 S12 O48,0.0,14
12972,Sr4 Ca2 I12,3.3417000000000003,64
12973,Li2 Sn4 S6 O24,0.0,167
12974,Y6 Ho6 O18,3.0775,185
12975,Sn8 S12 O48,0.0,60
12976,Li16 Bi8 O20,2.7704,52
12977,Li4 Bi8 O16,0.0,130
12978,Si8 Sn8 O28,2.5534,2
12979,Na2 Li4 Ti3 Al1 P6 O24,0.0,1
12980,Li10 Nb6 O2 F36,3.9757,9
12981,Li8 Ti8 Mn2 Co8 O36,0.11970000000000036,1
12982,Li8 Ti8 Cr2 Fe8 O36,0.6461999999999999,55
12983,Li8 Ti4 V14 O36,0.009399999999999853,6
12984,Li8 Ti2 V16 O36,0.0,1
12985,La8 Mn2 O16,1.2887000000000004,141
12986,Li2 Mn3 F8,3.3809,166
12987,V4 B4 O16,2.2086,14
12988,Mn3 P3 O12,0.1517,152
12989,Li4 Al2 V2 O8,2.1881,31
12990,Li1 Fe2 O3,0.0,5
12991,Li4 Mn5 Sn1 O12,0.0013000000000000789,12
12992,Li3 Cr1 Fe4 O8,0.0,12
12993,Li1 La4 Fe1 O8,0.6408000000000005,1
12994,Li4 Cr6 Cu2 O16,0.2200000000000002,9
12995,Li6 V2 B2 P2 O14,2.1828000000000003,11
12996,Li1 Mn4 O8,0.0,5
12997,Li1 V1 Co3 P6 O24,0.0,146
12998,Li4 Al2 V2 O8,2.1691999999999996,20
12999,Cr6 Te2 O16,0.42310000000000025,186
13000,Li24 Co8 B8 O32,1.7308000000000003,88
13001,Li4 V2 B2 O8,2.2750999999999997,1
13002,Li8 V4 B4 O16,2.2955,33
13003,Li8 Al4 V4 O16,2.3276,14
13004,Li4 Ti3 Mn3 V2 O16,0.0,8
13005,Mn4 P8 O26,0.8516,15
13006,Mn12 Sn4 O32,1.6699000000000002,212
13007,Li16 Fe8 O20,1.5990999999999997,14
13008,Li3 Fe4 Cu1 O8,0.0,12
13009,V2 Ni3 Te3 O16,0.4577,8
13010,Li1 V1 B1 O4,1.5900999999999998,82
13011,Na4 B2 Sb2 S2 O14,3.4585,11
13012,Li8 Co4 B4 O16,1.3633,62
13013,Mn4 Fe4 B4 O16,0.0,1
13014,Li8 Ti4 V6 Fe8 O36,1.5642,26
13015,Li4 Ti3 Mn1 O8,0.0,166
13016,Li4 Mn4 B8 O20,2.1107,14
13017,Li6 Si2 Sb2 C2 O14,3.4543,11
13018,Li6 Fe2 B2 As2 O14,2.1952,11
13019,Co5 Te3 O16,0.2977999999999996,1
13020,Li14 Fe6 O16,1.8908,2
13021,La4 Ga8 O18,2.698,55
13022,Li12 Mn4 P2 C8 O32,0.0,203
13023,Ba8 La8 Cl40,3.4008999999999996,62
13024,Li4 Fe3 O8,0.1331,166
13025,Li6 Cu2 Si2 C2 O14,0.0,11
13026,Li4 Si2 B2 Sb2 O14,2.6665,11
13027,Er12 Sb12 O42,1.7511999999999999,5
13028,Li24 Ti8 O28,4.043,4
13029,Li3 Co3 Sb1 O8,0.35050000000000026,2
13030,Li4 Al4 Fe4 O16,0.0,95
13031,Na2 V2 Si2 C2 O14,1.8401,4
13032,Mg16 Si16 O48,4.7719,88
13033,Li4 Fe10 B6 O26,1.8815000000000004,11
13034,Ho4 Se6 O24,3.0062,15
13035,Cr8 P8 O40,0.21799999999999997,14
13036,Li4 Mn5 Nb1 O12,0.0,12
13037,Na6 Cu2 C2 S2 O14,1.2205000000000004,11
13038,Dy8 Zr8 O28,4.0703000000000005,4
13039,Li32 Ti8 O28,0.7655000000000003,14
13040,K6 Li2 Nb12 O30,0.0,7
13041,Li4 V3 Sb5 O16,1.2006000000000006,1
13042,Li2 Fe3 Sn1 O8,0.0,160
13043,Li5 Cr2 Cu5 O12,0.0,5
13044,Li3 Mn1 V3 O8,0.7584999999999997,166
13045,Li3 Ti2 Cr1 O6,0.0,12
13046,Ti1 Fe1 O4,0.0,119
13047,Li6 Fe4 O2 F10,2.848,1
13048,Ge16 N16 O8,2.3691000000000004,141
13049,Fe6 O5 F7,1.2019,1
13050,K4 Zn4 P8 O28,0.0,26
13051,Ba8 La4 Cl28,4.4004,15
13052,Li2 V4 Fe2 O12,0.9704000000000002,15
13053,Li6 Mn4 Si4 O16,0.0,7
13054,Li4 Fe4 P4 O20,0.0,62
13055,Li1 Fe1 O1 F1,0.0,25
13056,Li4 V4 Sn2 O12,1.8274,64
13057,Li8 Fe3 Sn1 P6 O24,2.2165000000000004,1
13058,Li6 Fe2 O2 F6,3.0904000000000003,1
13059,Li4 Mn2 Cr1 Ni3 P6 O24,0.0,1
13060,Li2 Cr8 P6 O24,1.2445999999999993,122
13061,Li4 Mn4 Sb2 O12,0.0,64
13062,Li4 V2 Ni3 Sb3 O16,0.5773999999999999,1
13063,Ni3 Sb1 P4 O16,0.0010999999999996568,6
13064,Li4 Nb2 V3 Cu3 O16,0.0,1
13065,Na12 V4 O12,0.21830000000000016,14
13066,Li2 Ti1 V5 O12,0.6604000000000001,5
13067,Li4 V3 Sn3 Te2 O16,0.8990999999999998,8
13068,Li4 Fe5 P6 W1 O24,2.1268999999999996,1
13069,Hf16 N16 O8,1.6197999999999997,164
13070,Hf16 N16 O8,1.3567,141
13071,Al4 V4 O12,2.1441999999999997,62
13072,Zr3 O6,3.8528000000000002,1
13073,V2 Ni1 O6,1.7371,1
13074,Mn3 Cr1 Sn2 P6 O24,0.0,146
13075,K4 O2,1.7461,4
13076,Li40 Sb8 S32,0.8237000000000001,137
13077,Li8 Cu4 C8 S2 O32,0.0,70
13078,Li4 Sb2 P2 O4 F12,3.7559,1
13079,Ca4 Gd8 O16,2.9964,62
13080,Fe1 Sb3 P4 O16,1.3695,6
13081,Ti1 Mn2 Ni3 P6 O24,0.0,146
13082,Cr12 Ni8 O48,0.011699999999999933,14
13083,Li16 Fe8 F40,3.244,55
13084,Mn4 Fe2 P6 O24,0.0,167
13085,Li3 Fe1 F6,3.8122999999999996,162
13086,Li11 Fe6 F29,3.2092,12
13087,Li4 Mn6 F16,3.4295999999999998,31
13088,Mn7 Ni1 P12 O48,0.0,1
13089,Li8 Fe4 F20,3.6654999999999998,33
13090,Sr8 Li32 Ni8 O32,2.6358000000000006,61
13091,Li4 Nb3 Co3 Sn2 O16,0.5170999999999997,8
13092,Li4 Ti3 Co2 Sn3 O16,1.6612000000000005,8
13093,Li2 Co4 P6 O24,0.0,2
13094,Li1 V4 O5 F7,1.0295,1
13095,Ti1 Ni3 Sn2 P6 O24,1.9098000000000002,146
13096,Ba8 Li16 Ni8 O24,2.3059000000000003,14
13097,Li8 Ti8 Co10 O36,0.0,6
13098,Li9 Ni9 B9 O27,2.3794999999999997,1
13099,Li36 Y4 Ni8 O32,2.684,26
13100,Fe2 Ni3 Sb1 P6 O24,0.0,146
13101,Li1 V6 O7 F5,1.0399000000000003,1
13102,Na2 Sn2 O2,0.0,129
13103,Ti1 V4 Cu1 O12,0.0,5
13104,Li3 V4 O3 F9,1.2987000000000002,1
13105,Li3 Fe9 O5 F11,1.6456000000000002,1
13106,Li8 Fe4 F16,3.6433999999999997,14
13107,V6 O9,1.4363000000000001,12
13108,Li4 Mn8 F20,3.1819,33
13109,Li16 V8 F40,2.0367,55
13110,Fe6 O5 F7,1.3783999999999998,1
13111,Li16 Fe8 B8 O32,2.7011,29
13112,Fe6 O5 F7,1.4273,1
13113,Li4 Cr4 P16 O48,2.2488,14
13114,Li2 V3 F8,2.2001,166
13115,Li8 V8 F32,0.0,59
13116,Fe6 O5 F7,0.8514999999999999,6
13117,Na12 Sn4 O14,1.9620000000000002,15
13118,Fe6 O5 F7,1.4389999999999998,1
13119,Na32 Co16 O40,0.9819000000000001,14
13120,Li6 Mn4 Si4 O16,0.36970000000000014,7
13121,Fe6 O7 F5,0.0,38
13122,Li4 Ti1 Fe3 Cu2 P6 O24,0.20409999999999995,1
13123,Li8 Mn16 F40,3.0496,14
13124,Fe6 O7 F5,0.0,8
13125,Ba4 Li16 O12,3.3975999999999997,9
13126,Li3 V6 O9 F9,0.6937,1
13127,Li6 V8 O6 F18,1.1482999999999999,1
13128,Li12 Mn4 B24 O52,1.4548,19
13129,Li2 V3 Sn1 O8,0.0,160
13130,Mg12 N18 O57,3.234,143
13131,Li4 Fe2 Ni3 Te3 O16,1.0670000000000002,1
13132,Fe6 O4 F8,1.3084000000000002,5
13133,Li3 Cu3 P2 O8,0.7500999999999998,6
13134,Li2 Cr4 P6 O26,1.0714000000000001,2
13135,Na8 V8 O20,0.9734,13
13136,Ag2 Ge2 O6,0.0,1
13137,Li6 V8 O6 F18,1.1431000000000002,1
13138,Li12 Mn4 V4 P12 O48,0.0,70
13139,Fe6 O7 F5,0.0,1
13140,Ce2 W4 O16,1.5929000000000002,15
13141,V8 O12 F4,0.0,63
13142,Fe6 O8 F4,0.5163000000000002,35
13143,Hf12 N12 O6,1.2310999999999996,6
13144,Fe8 O10 F6,0.0,2
13145,Li4 V4 Si4 O20,2.0535,26
13146,Li2 Mn6 B6 O18,0.23540000000000005,2
13147,Fe8 O4 F12,1.2707000000000002,2
13148,Li6 Si4 Ni4 O16,1.0224,7
13149,Na16 Bi8 O20,2.6313,52
13150,Li8 Fe4 O8 F4,2.3033,15
13151,Na12 Cr4 B8 P2 O32,0.0,2
13152,Li10 Fe2 Co3 Ni3 O16,0.0,1
13153,Fe10 O15 F5,0.0,1
13154,Y6 N2 O5,0.0,5
13155,Fe8 O12 F4,0.0,12
13156,Li8 Mn8 Si8 O36,0.8885999999999998,60
13157,Li5 Fe1 O3 F2,2.7840999999999996,1
13158,Li8 Mn8 Si8 O32,0.9821,14
13159,K2 Li4 Mn4 O8,1.0793,11
13160,Li4 Mn12 P12 O44,3.1411,14
13161,Co6 O8 F4,0.0,8
13162,Li8 Fe12 F32,2.9172000000000002,14
13163,Fe8 O6 F10,1.2248999999999999,1
13164,Fe10 O9 F11,0.0,5
13165,Li4 Ti3 Mn3 Cu2 O16,0.09759999999999991,1
13166,Li2 Mn6 B6 O18,0.17310000000000003,2
13167,Li1 Fe6 O7 F5,1.8013,1
13168,Li8 Cu16 F40,0.4978999999999998,133
13169,Mn8 O12 F4,0.0,63
13170,C8 N8 K4 Ni2,3.0257,14
13171,Li3 V4 O3 F9,1.0761,1
13172,O15 F1 Na1 Nb6,1.5654999999999997,38
13173,Li18 V4 P8 H2 O36,0.40470000000000006,46
13174,Li1 Ti3 Nb1 Cu3 O12,0.0,1
13175,Co6 O7 F5,0.0,8
13176,Li1 V6 O7 F5,1.0366000000000004,1
13177,Li8 Fe8 P16 O56,1.4128,1
13178,Fe6 O4 F8,1.3797,4
13179,Co12 P16 O60,0.0,33
13180,Li2 V2 P4 O14,2.5161,2
13181,Li21 Co8 O18,0.9552,1
13182,Li6 Cr2 O8,1.3019999999999998,36
13183,Li4 Mn4 Si4 O16,1.5692,33
13184,Co8 O12 F4,0.0,64
13185,V1 Cr2 Ni3 P6 O24,0.0,146
13186,Mn8 O8 F8,0.2813000000000001,14
13187,Li4 Cr4 Si24 O60,0.7595000000000001,37
13188,Ni6 P8 O28,0.0,2
13189,Li2 Fe2 O2 F4,1.559,194
13190,Li4 V8 O12 F4,1.2511999999999999,26
13191,Li2 Ni4 P10 O30,3.3568999999999996,11
13192,Li8 V4 F24,1.9564,14
13193,Li8 Mn8 P8 O32,2.9528,14
13194,Li4 Mn2 P6 O20,0.0,11
13195,Nd2 Ni1 Ir1,0.0,225
13196,Lu1 H3,0.03500000000000014,139
13197,Rb2 Th6 F26,5.810700000000001,26
13198,Ca2 Sn2 S6,0.42469999999999963,63
13199,Ca8 Sn4 S16,1.3308,61
13200,Eu8 Si4 O20,0.0,62
13201,Ba10 Ru4 O22,0.3404999999999996,15
13202,Li1 La2 Ir1,0.0,225
13203,Li2 Ni3 P9 O28,0.0,2
13204,Li5 Co5 O10,0.39659999999999984,2
13205,Li4 Mn4 P8 O32,0.0,14
13206,V4 Si8 O22,1.7576999999999998,2
13207,Li1 Ca1 As1,1.8116,216
13208,Zn1 Co3,0.0,225
13209,Ho2 Cu1 Tc1,0.0,225
13210,Ni2 Pd6,0.0,194
13211,Mn6 Be2,0.0,194
13212,Rb3 Hg1,0.0,221
13213,Ho3 Hg1,0.0,221
13214,Li1 Ca3,0.0,139
13215,Na3 Ca1,0.0,225
13216,Na1 Ti1 O3,0.0,221
13217,Yb3 Li1,0.0,225
13218,Ti2 H4 Pd1,0.0,139
13219,Be1 Ni3,0.0,221
13220,Na2 Li1 N1 F6,2.7239,225
13221,Cs2 Al1 Ga1 H6,0.8581000000000001,225
13222,Sr1 Ta2 H2 O7,2.1892,139
13223,Si2 Dy1,0.0,191
13224,Cu2 O4 F2,0.0,31
13225,Cs1 Sc1 Br3,0.0,1
13226,Ni1 H1 O2,0.0,156
13227,La2 Zn1 Mo1 O6,0.0,148
13228,Ca1 V4 O8,0.6888000000000001,1
13229,Zn1 Cr4 S8,0.0,166
13230,V4 S8,0.0,227
13231,Ca1 Cr2 P4 O14,1.5773000000000001,1
13232,Ca3 Bi2 As2 O12,0.18200000000000016,1
13233,Zn2 W2 F10,2.5517000000000003,15
13234,Y16 Cu6 Sn6 S42,0.0,4
13235,Al2 Bi6 O18,0.29620000000000024,9
13236,Ca2 Ni4 O8,0.0,227
13237,Ca3 Ni2 W2 O12,0.0,1
13238,Sr4 Co2 Cu4 O14,0.0,9
13239,Ta4 Bi4 O18,0.0,36
13240,Zn4 W4 F20,2.6632,14
13241,Mg12 Co8 Si12 O48,2.5062999999999995,230
13242,Ca4 Ta2 Bi2 O12,2.1396000000000006,11
13243,Mg6 Si8 Ag4 O28,0.6335000000000002,15
13244,Sb4 O10,0.05379999999999985,59
13245,Mg2 Cu4 O8,0.0,227
13246,Mg4 Cu4 O8,0.3741000000000003,1
13247,Ca4 V2 Ir2 O12,0.5141999999999998,14
13248,Sb2 Ir2,0.0,194
13249,Li12 Ti8 Ge12 O48,0.0,230
13250,Mg6 Cd1 Sb1,0.0,38
13251,Na1 Mg6 Ga1,0.0,38
13252,Na1 Mg6 Ga1,0.0,38
13253,Ni3 Sn1 N1,0.0,221
13254,Sm2 Sb2 Te2,0.0,129
13255,Al12 P12 O48,5.2949,14
13256,Ca6 Ge2 O1,0.2902,225
13257,Mg6 Zn1 Bi1,0.0,38
13258,Li1 Ca1 Mg6,0.0,38
13259,Si4 S4,0.4776,53
13260,Te2 W3 S4,0.0,156
13261,Te2 W3 S4,0.0,187
13262,Te4 Mo1 W2 S2,0.0,156
13263,Te4 Mo1 W2 S2,0.0,156
13264,Te2 Mo1 W2 Se2 S2,0.0,156
13265,Te2 Mo1 W2 Se2 S2,0.0,156
13266,Te4 Mo1 W2 S2,0.0,156
13267,Sr1 Mg14 Ga1,0.0,38
13268,Na1 Mg14 Si1,0.0,38
13269,Mg14 Cu1 Sb1,0.0,38
13270,Mg14 Cu1 Ni1,0.0,38
13271,Mg14 Ti1 Zn1,0.0,187
13272,Mg14 Zn1 Si1,0.0,38
13273,Sr1 Mg14 Zn1,0.0,38
13274,Mg14 Mn1 Bi1,0.0,38
13275,Mg14 Mn1 Zn1,0.0,187
13276,Ca1 Mg14 Bi1,0.0,38
13277,Y1 Mg14 Mn1,0.0,38
13278,Ca1 Mg14 Cu1,0.0,38
13279,Mg14 Ni1 Bi1,0.0,187
13280,Mg14 Ni1 Bi1,0.0,38
13281,Te4 Mo2 W2 S4,0.0,164
13282,Na2 Ru2 N2,0.5001000000000002,186
13283,Mg6 Cu1 Ni1 O8,0.0,123
13284,Na1 Mg6 Fe1 O8,1.0379999999999994,123
13285,Mg6 Zn1 Cr1 O8,0.0,123
13286,Ca1 Mg6 Mn1 O8,1.0767999999999995,123
13287,Sr1 Mg14 Ni1 O16,2.5463999999999993,123
13288,Sr1 Mg14 Ni1 O16,2.7086999999999994,47
13289,Li1 Mg14 Sb1 O16,1.5900999999999996,123
13290,Mg14 Al1 Fe1 O16,0.46009999999999884,47
13291,Mg30 V1 Si1 O32,2.0509999999999993,123
13292,Ba1 Mg30 V1 O32,2.0007,123
13293,Hf1 Mg30 Co1 O32,0.006800000000000139,123
13294,Sr1 Y1 Mg30 O32,0.4515000000000011,123
13295,Mg30 Zn1 Bi1 O32,0.0,123
13296,Ba1 Mg30 Zn1 O32,3.9007,123
13297,Mg30 Mn1 Bi1 O32,0.0,123
13298,Ba1 Mg30 Mn1 O32,1.7998000000000003,123
13299,Mg3 Al3,0.0,166
13300,Ce3 Mg1,0.0,187
13301,Ca4 Mg2,0.0,189
13302,Li1 Mg30 B1 O31,3.0339,25
13303,Li1 Mg30 B1 O31,2.3305999999999996,25
13304,Li1 Mg30 B1 O32,4.510199999999999,123
13305,Rb1 Li1 Mg30 O31,2.9853000000000005,25
13306,Hf1 Mg30 Ti1 O32,0.006800000000000139,123
13307,Mg30 Ti1 Nb1 O32,0.25869999999999926,123
13308,Mg30 Ti1 Nb1 O32,0.29879999999999995,123
13309,Rb1 Os1 O3,0.0,6
13310,La1 Cr1 W1 O6,2.2439,1
13311,La2 Cr2 Ag2 O12,0.8117000000000001,7
13312,Zn6 Mo12 O24,1.0957999999999997,1
13313,Zn2 Ag6 P6 O26,0.0,11
13314,Sn6 P6 O26,0.0,11
13315,Ba4 Ti4 Zn4 F28,0.23309999999999986,14
13316,Ba4 Ta4 F28,3.9804,14
13317,Mg2 V8 O18,2.3925,85
13318,Zn8 Cr8 Si16 O48,1.9762999999999997,61
13319,Zn4 Cr4 As8 O28,0.6116000000000001,14
13320,Zn4 Co4 Ni4 P8 O36,0.18009999999999993,62
13321,Mg2 Fe8 O12,0.7306999999999997,63
13322,Mg4 Si16 Sn4 O40,2.4398999999999997,130
13323,Ca2 Pr2 Ag4 O12,0.0,1
13324,Pr2 Mg2 Co4 O12,0.0,1
13325,Y2 Mn4 S8,0.0,15
13326,Al2 V4 O8,0.0,12
13327,Li2 Cr4 O8,0.0,12
13328,Mg4 Ta4 Ti2 O16,0.03109999999999946,15
13329,Mg4 V4 As4 O20,1.7189999999999999,4
13330,Ca2 Ag1 W1 O6,0.05800000000000005,1
13331,Mg2 Cu4 O8,0.0,63
13332,Ba2 Y1 Ni3 O8,0.0,123
13333,Ba3 Y5 Ni3 O15,0.0,8
13334,Sr3 Cr2 Cu2 S2 O5,0.4006999999999996,139
13335,Sm1 Ge5,0.0,71
13336,Sr28 Ca4 Ti20 Mn12 O80,0.0,1
13337,Ba4 Ti4 O10,0.0,46
13338,K8 Na24 V20 Mo12 O80,0.6291000000000002,1
13339,Ba12 Sr20 Co16 Cu16 O80,0.0,1
13340,Ba1 Cu1 O3,0.0,221
13341,Ba12 Sr20 Co12 Cu20 O80,0.011699999999999822,1
13342,Ca28 Mg4 Mn32 O80,0.0,1
13343,Ti2 H4,0.0,129
13344,Cr2 Fe1 S4,0.0,12
13345,Li2 Tb2 Sn4,0.0,63
13346,Eu4 Al4,0.0,62
13347,U3 Al3 Ru3,0.0,38
13348,Mg6 Sn6,0.0,38
13349,Sr6 Mg6,0.0,8
13350,Zr8 Sn4,0.0,63
13351,Y8 Mg4,0.0,15
13352,Mg4 Zn2,0.0,189
13353,Mg6 Zn6,0.0,38
13354,Ce10 Mg2,0.0,8
13355,Al1 Ag1 S2,1.5576999999999996,160
13356,Ga1 Ag1 O2,0.30580000000000007,160
13357,La28 Sm4 Mn20 Fe12 O80,0.4192,1
13358,Sr2 Ca6 Fe3 Co5 O24,0.0,38
13359,Ca4 Sn8 S20,0.8113000000000001,55
13360,Li9 Mn2 Co5 O16,0.5695000000000001,6
13361,Li9 Mn2 Co5 O16,0.6387,8
13362,Li9 Mn2 Co5 O16,0.6798000000000002,10
13363,Li9 Mn2 Co5 O16,0.29590000000000005,10
13364,Zr4 Ag8 H96 N32 F24,0.5496,7
13365,V2 Fe3 Ni1 P6 O24,0.0,146
13366,Ti3 Mn1 Sn2 P6 O24,0.8309000000000002,146
13367,Ti4 Cu4 Ge4,0.0,62
13368,Tb2 Hf2 O8,0.0,15
13369,Ta4 Ge4 O14,2.4449000000000005,36
13370,Ni2 Sb2 P4 O16,0.0,11
13371,Nd2 I2 O2,2.1866999999999996,166
13372,Sb2 Br9,0.0,12
13373,Pr1 Mn4 Co8,0.0,139
13374,Al1 Si4 O10,0.0612,5
13375,Hf2 Co14,0.0,47
13376,Rb3 Sb1 I6,2.3797,225
13377,K2 Ce1 Ag1 I6,0.21370000000000022,225
13378,K2 Rb1 Er1 Cl6,4.4267,225
13379,Cs1 Rb2 As1 Cl6,3.4004000000000003,225
13380,K2 In1 Ga1 Cl6,1.5288,225
13381,K2 Hg1 As1 I6,0.0,225
13382,K2 Sb1 Au1 I6,0.0,225
13383,K2 In1 Hg1 Cl6,0.0,225
13384,K2 Ce1 Cu1 Br6,0.2320000000000002,139
13385,Cs2 Li1 Pd1 F6,0.0,225
13386,Cs2 Li1 Mo1 I6,0.9856000000000003,225
13387,Cs2 Y1 Hg1 Br6,0.0,225
13388,Cs2 Ga1 Au1 I6,0.0,225
13389,Cs2 Sb1 Au1 Cl6,0.2817000000000003,225
13390,Cs2 Ga1 Ag1 Br6,0.0644,225
13391,Rb3 Ga1 Cl6,3.4003,225
13392,Na2 V6 F14,1.3674,15
13393,H24 Pb2 C4 I12 N4,0.21030000000000001,1
13394,Be12 Ti1,0.0,191
13395,Ti1 Cd1 Hg2,0.0,123
13396,Te1 U1,0.0,221
13397,Mn1 Zn1,0.0,221
13398,Fe2 Ni1 Se4,0.0,1
13399,K4 Na2 Nb2 O4 F8,2.4143,136
13400,Nb6 Pb10 O25,0.7506000000000004,6
13401,Sr18 Fe18 O47,0.0,2
13402,Li4 Mn2 Co2 O8,0.0,12
13403,Li3 Mn1 Co2 O6,0.1554000000000002,12
13404,Li6 Co4 O10,0.41590000000000016,2
13405,Li6 Co4 O10,0.3346,2
13406,Li4 Mn1 Co3 O8,0.0,12
13407,Li5 Co3 O8,0.0,10
13408,Li6 Mn2 Co2 O10,0.5781000000000001,12
13409,Li5 Mn1 Co2 O8,0.0,6
13410,Li6 Mn2 Co2 O10,0.19410000000000016,2
13411,Li6 Mn2 Co2 O10,0.0,8
13412,Li6 Mn2 Co2 O10,0.0,8
13413,Li5 Mn1 Co2 O8,0.0,8
13414,Li7 Co5 O12,0.5224000000000002,2
13415,Li8 Co6 O14,0.33899999999999997,2
13416,Li7 Co5 O12,0.5232999999999999,2
13417,Li7 Co5 O12,0.4624999999999999,2
13418,Li7 Co5 O12,0.7014999999999998,10
13419,Li5 Mn2 Co1 O8,0.19769999999999976,6
13420,Li8 Mn2 Co4 O14,0.2330000000000001,2
13421,Li8 Mn2 Co4 O14,0.37619999999999987,1
13422,Li8 Mn2 Co4 O14,0.6107,5
13423,Li8 Mn2 Co4 O14,0.33150000000000013,5
13424,Li8 Mn2 Co4 O14,0.0,8
13425,Li7 Mn2 Co3 O12,0.0,2
13426,Li7 Mn2 Co3 O12,0.6697000000000002,2
13427,Li7 Mn4 Co1 O12,0.0,6
13428,Li7 Mn4 Co1 O12,0.0,6
13429,Li7 Mn4 Co1 O12,0.0,8
13430,Li7 Mn4 Co1 O12,0.0,8
13431,Li9 Co7 O16,0.0,2
13432,Li9 Co7 O16,0.2694000000000001,12
13433,Li9 Co7 O16,0.0,2
13434,Li9 Mn2 Co5 O16,0.6167000000000002,2
13435,Li9 Mn2 Co5 O16,0.6316000000000002,2
13436,Li9 Mn2 Co5 O16,0.4407000000000001,5
13437,Li9 Mn2 Co5 O16,0.6195999999999997,5
13438,Li9 Mn2 Co5 O16,0.0,5
13439,Li9 Mn2 Co5 O16,0.8254000000000001,2
13440,Li9 Mn2 Co5 O16,0.0,2
13441,Li9 Mn2 Co5 O16,0.4873000000000003,5
13442,Li9 Mn2 Co5 O16,0.5976000000000004,2
13443,Li9 Mn2 Co5 O16,0.5315000000000003,5
13444,Li9 Mn2 Co5 O16,0.6240000000000001,1
13445,Li9 Mn2 Co5 O16,0.7964000000000002,2
13446,Li9 Mn2 Co5 O16,0.6788999999999996,5
13447,Li9 Mn2 Co5 O16,0.4270999999999998,5
13448,Li9 Mn2 Co5 O16,0.7427999999999999,1
13449,Li9 Mn2 Co5 O16,0.5402,1
13450,Li9 Mn2 Co5 O16,0.6388000000000003,1
13451,Li9 Mn2 Co5 O16,0.5662000000000003,1
13452,Li9 Mn2 Co5 O16,0.4476,1
13453,Li9 Mn2 Co5 O16,0.5404,1
13454,Li9 Mn2 Co5 O16,0.7519,1
13455,Li9 Mn2 Co5 O16,0.4400000000000004,1
13456,Li9 Mn2 Co5 O16,0.42390000000000017,1
13457,Li9 Mn2 Co5 O16,0.1471,1
13458,Li9 Mn2 Co5 O16,0.3392999999999997,1
13459,Li9 Mn2 Co5 O16,0.5825999999999998,1
13460,Li9 Mn2 Co5 O16,0.4474999999999998,1
13461,Li9 Mn2 Co5 O16,0.2871999999999999,1
13462,Li9 Mn2 Co5 O16,0.16639999999999988,1
13463,Li9 Mn2 Co5 O16,0.48999999999999977,1
13464,Li9 Mn2 Co5 O16,0.2668999999999997,1
13465,Li9 Mn2 Co5 O16,0.5319000000000003,1
13466,Li9 Mn2 Co5 O16,0.3796000000000004,1
13467,Li9 Mn2 Co5 O16,0.3571,1
13468,Li9 Mn2 Co5 O16,0.7333000000000003,1
13469,Li9 Mn2 Co5 O16,0.37429999999999986,1
13470,Li9 Mn2 Co5 O16,0.33030000000000026,1
13471,Li9 Mn2 Co5 O16,0.5126,3
13472,Li9 Mn2 Co5 O16,0.5697000000000001,1
13473,Li9 Mn2 Co5 O16,0.4934000000000003,3
13474,Li9 Mn2 Co5 O16,0.24170000000000025,12
13475,Li9 Mn2 Co5 O16,0.3961000000000001,3
13476,Li9 Mn2 Co5 O16,0.0,3
13477,Li9 Mn2 Co5 O16,0.6499999999999999,12
13478,Li9 Mn2 Co5 O16,0.5852000000000004,12
13479,Li9 Mn2 Co5 O16,0.2561,12
13480,Mn12 O10 F14,0.22330000000000005,1
13481,Mn3 Cr2 Sn1 P6 O24,0.021400000000000308,146
13482,Li4 V4 Si4 O16,2.2906999999999997,14
13483,Li2 Mn2 F6,3.849,36
13484,Li18 Mn2 Si4 O20,1.0543999999999998,1
13485,Li4 Co8 P12 O48,0.0,4
13486,Li8 Cr3 Sb1 O12,0.7295000000000003,1
13487,Li6 Ni3 Sn1 P6 O24,0.0,1
13488,Li7 Fe1 Ni3 P6 O24,0.021500000000000075,146
13489,Li10 Fe2 O6 F2,2.6367,6
13490,Li12 Fe6 O16,0.0,1
13491,Li10 Co4 O12,0.42399999999999993,65
13492,Li5 Co4 B4 O12,0.6228000000000002,1
13493,Li5 Cu5 Te2 O12,0.04720000000000013,5
13494,Li4 Mn1 Ni5 P6 O24,0.42500000000000027,1
13495,Li4 Mn3 Fe2 Sn1 P6 O24,2.0039999999999996,1
13496,Li4 Fe3 Cu2 Sn3 O16,0.0,8
13497,Li16 Fe12 Si12 O48,1.5964,7
13498,Li4 Mn3 V3 Te2 O16,0.3281999999999998,1
13499,Li4 Mn3 Fe3 P6 O24,0.42500000000000027,1
13500,Li15 Co12 Ni6 O36,0.2392000000000003,1
13501,Li3 Cu4 Sb1 O8,0.0,12
13502,Li3 Co2 Si2 O8,0.5730999999999999,1
13503,Li4 V2 O4 F2,0.0,59
13504,Li3 Cr2 Fe3 O10,1.0638999999999998,2
13505,Li6 Mn8 P16 O56,0.0,1
13506,Li2 Co3 Te1 O8,0.45619999999999994,2
13507,La12 Mn4 O28,0.0,14
13508,Fe12 O12,1.1841,1
13509,Fe7 P8 O32,0.018100000000000005,8
13510,Fe2 C2 S2 O14,0.8479000000000001,11
13511,Gd1 Al1 O3,1.9038000000000004,221
13512,Fe8 O6 F10,1.2130999999999998,59
13513,Cu2 C2 O6,0.0,2
13514,Cr3 Co1 Te2 P6 O24,0.0,146
13515,Co3 Ni2 Te3 O16,0.16920000000000002,1
13516,Co4 O6 F2,0.0,74
13517,Cr12 Fe7 O48,0.0,1
13518,Yb4 Cu4 Pb4 Se12,0.0,62
13519,Zn4 Au8 Cl32 O8,1.4059,14
13520,Sm3 Pd3 Pb3,0.0,189
13521,Sb8 Se12,0.4577,62
13522,H24 O12,4.5306999999999995,2
13523,Fe4 Co2 As4 H20 O28,0.0,14
13524,Fe16 H16 O32,1.5554999999999999,1
13525,Ag4 Sb4 S8,1.6506,9
13526,Ce2 Ag1 Sn1,0.0,225
13527,Ce1 Pm1 Mg2,0.0,225
13528,Er2 Mg1 Tc1,0.0,225
13529,Ga3 Ag1,0.0,225
13530,Fe6 W2,0.0,194
13531,Ho2 Hg1 Os1,0.0,225
13532,H2 I6,1.2436000000000003,1
13533,Li3 Yb1,0.0,225
13534,Cs1 Na3,0.0,225
13535,La1 Ce3,0.0,221
13536,Na3 Ca1,0.0,221
13537,Pa1 Ti1,0.0,187
13538,Pr3 Th1,0.0,139
13539,Sr1 Sc1 O3,0.0,221
13540,Tb3 Hg1,0.0,221
13541,Tb3 Eu1,0.0,139