Index,Composition,bandgap,spgN
14768,Ag2 H24 C8 S10 N2,1.8217,9
14769,U4 P12 H28 O32,2.3075,19
14770,Li2 Ni8 P14 O48,0.0,2
14771,Li6 Fe8 P18 O64,0.0,114
14772,Mg9 V10 O24,0.9199000000000002,12
14773,V25 O32,0.2331000000000003,5
14774,K10 H6 S10 O28,3.6559,12
14775,Re2 H44 C8 S8 N16 Cl16 O6,1.4388,63
14776,Zr2 Ir4,0.0,227
14777,Na8 H40 Ru2 S8 N4 O36,3.3169,14
14778,H72 Ru4 N20 Cl8 O8,1.2495,14
14779,Mn4 H76 C24 I12 N8,2.427,14
14780,Si4 P4 H72 C24 I4 N4 Cl4,2.7535,45
14781,Nb1,0.0,229
14782,Cs4 Ba4 O6,1.4585000000000001,14
14783,Ho4 Ti2 O10,3.0358,63
14784,Na12 Sb2 O10,0.0,63
14785,Li2 Cu4 C4 O14,0.0,1
14786,Li2 Co2 S4,0.0,4
14787,Sr2 Cu1 H2 Se4 O12,0.7816000000000003,2
14788,Li2 Ag2 F4,0.6332,141
14789,Gd4 Cd2 O8,1.6159999999999999,227
14790,Li8 Nb1 S6,0.0,148
14791,Li1 Zn1 O2,0.0,166
14792,K8 Ti2 O8,3.1646,63
14793,Lu2 Al2 O6,5.0767,167
14794,Na4 Ti3 O8,2.3427999999999995,12
14795,Li4 Nb2 S6,0.0,12
14796,K2 Pr2 P2 C2 O14,0.10989999999999989,4
14797,Ba4 Y2 Cl14,3.9883999999999995,15
14798,Li4 Nb1 O4,0.0,87
14799,Tb4 Sm4 O12,4.456200000000001,62
14800,Li4 Zr4 O10,3.6528,15
14801,Ta3 O5 F5,2.197,71
14802,Sb4 O4 F4,2.7582000000000004,62
14803,Li16 Si16 Bi8 O52,3.8328,33
14804,Li4 Cu3 Sb1 O8,0.0,12
14805,Li10 Bi2 S8,1.5608999999999997,36
14806,Li2 Sn1 P6 O18,2.2904999999999998,1
14807,Ba8 In4 O14,1.3670999999999998,2
14808,Li4 Sn16 P12 O48,2.8044999999999995,62
14809,Li2 Cu6 C6 O18,0.0,6
14810,Li4 Cu2 P4 O14,0.4907999999999997,2
14811,Li4 Cu4 P4 O16,0.008199999999999985,7
14812,Li4 Cu4 P8 O24,1.2716000000000003,14
14813,Li40 Cu8 H8 O32,0.2156,62
14814,Li9 Sb3 P6 O24,2.9066,143
14815,Li4 Bi4 P8 O28,4.396,14
14816,La4 H44 S12 N12 O46,4.3906,15
14817,Li2 Cu5 P4 O16,0.0,2
14818,Li6 Bi4 P6 O24,3.5627000000000004,15
14819,Li4 Cu4 H16 O16,1.4109,33
14820,Li4 Sb4 P8 O28,3.7232000000000003,14
14821,K6 Li12 Sb6 P12 O48,3.4313999999999996,1
14822,Nb3 O7 F1,0.716,65
14823,Na12 Li4 Sb4 P8 O36,0.0030000000000001137,19
14824,Li2 Cu8 P6 O24,0.0,9
14825,Li4 Fe4 Si16 O40,2.9057,130
14826,Li4 V4 P4 O16,2.2691999999999997,2
14827,Li4 V4 P4 O16,2.1744000000000003,14
14828,Li2 Cr2 P2 O8,1.2332999999999998,63
14829,Li8 Cr4 P8 O32,0.8675000000000002,14
14830,Li8 Fe8 P8 O32,3.1569999999999996,61
14831,Li16 Fe16 P16 O64,3.6826,14
14832,Li8 Fe8 Si16 O48,2.9944,88
14833,Li4 Co2 P4 O14,2.8826000000000005,1
14834,Cr3 Co1 P6 O24,0.0,146
14835,Li6 Ni3 P6 W1 O24,2.1898999999999997,1
14836,Li4 Mn2 Si6 O16,2.7363999999999997,4
14837,Li16 Co8 P16 O56,2.5356,4
14838,Cr4 H4 Se12 O32,2.3228,14
14839,Li6 Co6 P6 O24,2.8761,159
14840,Sb4 O4 F12,2.5639,14
14841,Ba8 Bi10 O27,0.0,148
14842,Na4 Sn4 O6,0.4260999999999999,199
14843,Li3 Fe3 Si1 O8,1.4764999999999997,10
14844,Li24 Co24 P24 O96,1.8231999999999997,169
14845,Mn7 Co1 P12 O48,0.0,1
14846,Li12 Mn8 C8 O40,0.0,26
14847,Li1 Co1 Si1 O4,1.556,82
14848,Li3 V2 O6,1.3016999999999999,1
14849,Li10 Mn10 O24,0.45500000000000007,1
14850,Li2 Fe2 P8 O24,2.6502,15
14851,Li4 Ti2 Mn3 Nb3 O16,0.0,8
14852,Li4 Fe4 P4 O16,3.4999000000000002,2
14853,Li8 Fe2 Si6 O18,3.0729,5
14854,Li6 Ti2 Fe6 O16,2.1109999999999998,1
14855,Li8 Fe8 Si8 O32,1.7913999999999999,61
14856,Li4 Fe2 P4 O16,0.0,2
14857,Li4 Co4 Si4 O16,1.4112999999999998,33
14858,Li4 Mn2 P2 O10,1.404,15
14859,Mn1 V4 O12,1.3822,1
14860,Li4 Fe2 P4 O16,0.0,9
14861,Li4 Co4 Si4 O16,0.7703000000000002,26
14862,Li12 Co12 Si12 O48,1.4128000000000003,14
14863,Fe4 O6 F2,0.0,63
14864,Fe8 O12 F4,0.0,38
14865,Li4 Mn4 F12,3.5423,182
14866,Fe3 Co1 Cu2 P6 O24,0.0,146
14867,Li4 V2 Co3 Ni3 O16,0.0,1
14868,Li2 Mn4 F18,0.9941999999999998,2
14869,Li2 Sb2 W2 O12,2.7405,74
14870,Li4 Co4 Si4 O16,1.3669,33
14871,Li12 Mn4 F20,3.617,62
14872,Li2 Cr3 Co1 O8,0.6141000000000001,12
14873,Li1 V3 O8,1.1302,8
14874,Li4 P16 W4 O48,4.1833,14
14875,Li2 V8 P6 O24,1.5719999999999996,36
14876,Ti2 V3 Cr1 P6 O24,0.0,146
14877,Li4 V7 P6 O24,2.0010000000000003,8
14878,Fe6 O6 F6,0.8246000000000002,10
14879,Li16 V4 P8 O36,1.3585,62
14880,Li2 V2 P2 O8,2.6635,43
14881,Li4 V16 P12 O48,1.9653,58
14882,Li4 Mn10 O24,0.05459999999999998,9
14883,Li2 Fe2 C4 O12,2.1271,4
14884,Li1 Co2 C4 O12,0.2785000000000001,1
14885,Fe8 C8 O28,1.6809,14
14886,Li6 Mn4 C8 O24,0.5049,4
14887,Li2 Fe2 P4 O14,2.7386999999999997,2
14888,Li2 V4 P2 O14,1.1581,4
14889,Li4 Cr3 Fe2 Co3 O16,0.0,1
14890,Li4 Mn2 Si8 O22,0.0,87
14891,Li4 Fe12 P12 O44,3.1618,14
14892,Li8 Mn8 F28,1.2666,1
14893,Fe6 O4 F8,1.3659,1
14894,Li4 Co8 O4 F12,2.0411,78
14895,Li16 Co2 O8 F4,2.4959,2
14896,Mn12 O14 F10,0.0,1
14897,Li2 V2 O2 F6,0.0,5
14898,Mn12 O7 F17,0.0,1
14899,Li7 V1 O5 F1,1.8857,1
14900,Li10 Mn3 V5 O16,0.2265999999999999,1
14901,Mn4 O2 F8,0.1033,36
14902,K2 Li4 Mn2 P2 C2 O14,3.0119,4
14903,Li1 Co3 Sb1 P6 O24,0.0,1
14904,Na4 Co2 O6,0.5429,12
14905,Li4 Fe8 O4 F12,2.0239000000000003,1
14906,Li2 Mn1 F6,2.9997,164
14907,Li4 Co8 P12 O48,0.0,7
14908,Mn3 V1 Sb2 P6 O24,0.023499999999999854,146
14909,Fe4 O5 F3,0.0,8
14910,Li5 Mn6 O16,0.0,8
14911,Li6 Ni2 O4 F4,0.5730999999999999,13
14912,Na2 Li2 V2 O4 F4,1.5423000000000002,11
14913,Li3 Ti4 V1 O8,0.0,12
14914,V2 F10,3.1601,15
14915,Li5 Mn1 Cr3 O8,1.4197999999999995,166
14916,V28 O24 F36,0.22499999999999964,41
14917,Li8 Mn4 O8 F4,0.9936000000000003,15
14918,Fe12 O8 F8,1.0278999999999998,57
14919,Li4 V8 F28,2.6576999999999997,62
14920,Li2 V4 O6 F2,1.4350999999999998,1
14921,Li9 Cr4 B8 O24,0.5138,1
14922,Li4 Sn4 P4 O16,3.2874,33
14923,Li5 Mn3 O5 F3,0.6690999999999998,1
14924,Li10 Cr3 P6 O24 F6,0.0,1
14925,Mn3 V1 Cr2 P6 O24,0.0,146
14926,Li2 Co2 P2 O8,2.2678000000000003,148
14927,Li4 Co4 P4 O16,3.0730000000000004,14
14928,Li4 Ni3 O2 F6,3.5404,2
14929,Li4 V2 O2 F6,1.8385,5
14930,Li4 V2 O6 F2,2.5474,1
14931,Li2 Mn2 P2 O8,3.3736,5
14932,Li4 Ni2 P6 O20,0.0,11
14933,Co3 Ni1 O8,1.1465,166
14934,Li8 Fe8 P8 O32,3.1186999999999996,33
14935,V4 F20,3.1750999999999996,33
14936,Li4 Ni2 P10 O30,0.1663,9
14937,Li2 V2 O4 F4,2.7641999999999998,4
14938,Li4 Si12 Bi4 O32,3.4775,9
14939,Li16 Bi2 S12,0.0,185
14940,Li4 Mn2 Fe3 Ni3 O16,0.0,1
14941,V2 Sn2 P4 O16,0.042300000000000004,11
14942,Mn4 O4 F6,0.0,1
14943,Li8 Mn4 O8 F4,1.0842999999999998,2
14944,Li8 Mn4 O8 F4,1.0974,1
14945,Li2 Mn4 P4 O16,0.7093,7
14946,Li2 Fe4 P4 O16,1.5367000000000002,7
14947,Li4 Mn4 O2 F12,1.3434000000000001,9
14948,Li8 Mn4 O8 F4,0.637,5
14949,Sr2 La6 Mn2 O16,0.0,63
14950,Li1 Fe2 P2 O8,1.9141,1
14951,Li4 Mn6 F20,0.0,12
14952,Li5 Fe5 Si7 O24,1.8272,1
14953,Li2 Mn1 Si3 O8,2.6554,1
14954,Li4 Si6 Ni2 O16,3.8379,4
14955,Li6 Cr2 P2 C2 O14,2.6734,4
14956,Li4 Ni8 P8 O32,0.7832999999999999,29
14957,Na4 Ti2 P2 C2 O14,0.1887000000000003,11
14958,Li1 Co3 Sb1 P6 O24,0.0,146
14959,Li12 Mn2 O8 F2,1.2066999999999999,4
14960,Li4 Ti2 Nb3 Co3 O16,0.7981000000000003,8
14961,Li1 Co1 C2 O6,0.0,2
14962,Li34 Sb9 S6,0.0,1
14963,Li3 Mn4 P6 O24,0.0,5
14964,Li2 Mn4 P4 O20,0.005599999999999827,4
14965,Li12 V4 P4 C4 O28,2.5534,1
14966,Li12 Cr4 P4 C4 O28,2.7651,14
14967,Li12 Cr4 P4 C4 O28,2.5572999999999997,14
14968,Li12 Cr4 P4 C4 O28,2.7159999999999997,14
14969,Li8 Si6 Ni2 O18,3.9817,5
14970,Li8 Si12 Ni4 O32,4.393199999999999,212
14971,Li4 Fe2 Si2 O10,0.0,129
14972,Li2 V2 C4 O12,2.1593,4
14973,Li6 Ca2 P2 C2 O14,4.872999999999999,11
14974,Na10 Bi4 As2 C8 O32,0.8847000000000003,15
14975,Dy2 Nb2 O8,3.9158,141
14976,Ti4 S6 O24,0.0,148
14977,Y2 Al6 O12,4.122,15
14978,Ba12 Sr2 I28,3.0892,64
14979,Sn4 S6 O24,0.0,167
14980,Ba4 Y10 Cl38,4.2872,4
14981,Li1 Bi12 O20,0.0,197
14982,Ba4 La4 Cl20,3.785,62
14983,Li14 Cu2 As8 Cl2 O28,0.3601000000000001,9
14984,Li8 Cu4 H16 O16,0.4319999999999997,33
14985,Li8 Ti8 Mn2 Fe8 O36,1.0258000000000003,55
14986,Li8 Ti8 V2 Fe8 O36,1.6191999999999998,55
14987,Li4 Nb12 Ni2 O36,1.2693000000000003,1
14988,Li11 Fe1 W7 O28,2.8156,8
14989,Li1 La8 V8 O32,1.1582,1
14990,V12 P8 O32,2.0661,14
14991,Li6 Mn4 Si4 O16,0.0,4
14992,Li2 Mn2 Nb2 O8,0.5886999999999998,74
14993,Co2 Ag2 O6,0.0,148
14994,Ba4 Li8 Ni4 O12,2.2093,62
14995,Li4 V2 Cr3 Ni3 O16,0.0,1
14996,Zr4 Co4 O12,1.7275,14
14997,Li4 Mn3 V2 Cu3 O16,0.0,8
14998,Mn4 V8 O16,0.8494000000000002,6
14999,Cd6 Co5 O15,0.0,155
15000,Li2 Ti1 Cr1 O4,0.0,10
15001,Al1 Cr1 O4,0.0,8
15002,Li4 Al2 Ni2 O8,1.8149999999999997,20
15003,Li2 Al2 Ni2 O6,3.0139,2
15004,Y2 V2 O7,0.4868999999999999,12
15005,Li8 V4 Si2 P4 O24,1.9445999999999994,9
15006,La4 Ti6 O18,2.715,4
15007,Ho4 Lu4 O12,4.5866999999999996,62
15008,Li24 Al8 Ni8 O32,2.4289000000000005,88
15009,Li40 Mn8 O32,1.3683999999999998,61
15010,Li12 Fe4 B8 S2 O32,0.0,203
15011,Li12 Fe4 C8 S2 O32,0.0,203
15012,Li4 V1 Ni3 O8,0.0,1
15013,Li16 Zr4 O16,4.0628,14
15014,Li4 Mn2 Fe3 P6 W1 O24,2.1268000000000002,1
15015,Cu2 Te2 O8,0.3853,74
15016,Fe1 Sb4 O12,0.0,1
15017,Li8 Fe4 B4 O16,2.3452,62
15018,Mn3 Cr3 Sn2 O16,0.8395000000000001,1
15019,Na4 Cu2 B2 S2 O14,0.9652999999999999,11
15020,Li4 Mn3 Ni3 P6 O24,0.2550000000000001,1
15021,Li1 Co3 O4,0.0,2
15022,Li5 Nb2 Co3 O10,0.8350999999999997,2
15023,Li6 Cr1 Sn3 P6 O24,1.9426,1
15024,Li3 Mn4 V1 O8,0.0,12
15025,Li5 V2 Co3 O10,0.34929999999999994,2
15026,Li5 Co2 Cu5 O12,0.0,5
15027,Li4 Mn3 V2 Ni3 O16,0.7054,8
15028,Ti2 Mn3 Cr3 O16,0.7849999999999999,1
15029,Sr8 Ca4 I24,3.4311999999999996,117
15030,Li6 Mn2 B2 P2 O14,1.1598000000000002,11
15031,Li6 Fe2 B2 P2 O14,2.3324,11
15032,V3 Ni1 O8,1.1928,1
15033,Ca4 Pb4 I24,1.8336999999999999,43
15034,Ca6 Pb6 I28,0.0,11
15035,Li2 Ti2 V2 O10,1.8191000000000002,67
15036,Sb2 P4 H3 O16,0.0,1
15037,Cu8 P8 O24,1.5535,14
15038,Be1 Bi12 O20,0.0,197
15039,Li4 Nb20 O32,0.09080000000000021,14
15040,La4 Mn1 O8,1.3675999999999995,65
15041,Cr1 Ni5 P6 O24,0.0,146
15042,Li4 Cr10 B6 O26,1.2860999999999998,11
15043,Ca12 W8 O36,3.2671,33
15044,Li12 V4 B8 S2 O32,1.9200000000000002,203
15045,Be4 Cr4 O16,2.2720000000000002,14
15046,Yb2 Li6 P2 C2 O14,5.0103,4
15047,K6 Be2 P2 C2 O14,4.0032000000000005,11
15048,Li12 Zr4 O12,0.0,136
15049,Li8 Ti7 Nb6 O30,0.0,143
15050,Li12 Fe8 P12 O48,2.4012,1
15051,Li1 V3 Co1 O10,0.5654,5
15052,Al4 Co4 O12,0.8609,15
15053,Li4 Ti2 Cr2 O8,0.0,74
15054,Co4 Ni1 O8,0.0,2
15055,Li6 Fe2 Si2 O10,2.2539,2
15056,Li4 Mn5 Nb3 O16,0.0,1
15057,Li4 Mn3 Cu1 O8,0.0,166
15058,Li4 Mn5 Te3 O16,0.0,1
15059,V4 Sb2 P6 O24,0.0,167
15060,Li4 V3 Ni1 O8,0.9832000000000001,2
15061,Li8 V8 Si24 O60,1.0580999999999996,64
15062,Li3 Si2 Ni2 O8,1.0103000000000002,1
15063,Cr1 Ni3 P4 O16,0.0,6
15064,Na2 Mn4 O8,0.0,6
15065,Li2 Ta2 W2 O12,3.1938,74
15066,Ni3 Sn1 P4 O16,0.0,6
15067,Li10 Cr2 Fe3 Co3 O16,0.0,1
15068,Li4 Cr4 P16 O48,2.1794,20
15069,Li3 Ti2 Fe1 O6,0.0,12
15070,Co10 O5 F15,0.0,1
15071,Mn12 O14 F10,0.0,1
15072,Li6 Sb4 P6 O24,2.9263000000000003,5
15073,Li6 Sn6 P6 O24,3.215,146
15074,Li8 Cu8 S12,0.0,15
15075,Li4 Nb4 P4 O20,0.0,62
15076,Co2 Sb2 P4 O16,0.0,11
15077,Li6 Si2 Ni2 O10,0.17379999999999995,2
15078,Li1 La1 Nb4 O12,1.2726,123
15079,Li8 Mn8 Si8 O32,1.2671999999999999,61
15080,Li4 Co6 W2 O16,0.528,9
15081,Li2 Mn3 Ni1 O8,0.7708999999999997,160
15082,Li4 V3 Ni3 Sn2 O16,0.1318999999999999,1
15083,Li8 Ti4 V6 Cr8 O36,1.5306000000000002,55
15084,Li4 Cr1 Te2 W1 O12,0.0,1
15085,Ti1 Ni3 P4 O16,0.0,6
15086,Na24 Mn8 O24,0.5623999999999998,14
15087,Li8 V10 Fe8 O36,1.3771,55
15088,Li4 Cr3 Sn3 Te2 O16,1.1035000000000004,8
15089,Ti3 V1 Sb2 P6 O24,0.0,146
15090,Li4 Ti6 Nb2 O16,0.0,186
15091,Zr8 N8 O4,1.9187999999999996,5
15092,Sc16 O24,4.1645,33
15093,Mn3 Fe3 Sb2 O16,0.0,8
15094,Ti1 Fe2 Ni3 P6 O24,0.007099999999999884,146
15095,Li2 V3 Ni1 O8,0.0,8
15096,Zr12 N12 O6,1.7626000000000004,15
15097,Cu2 As2 O6,0.0,2
15098,Li4 Ti2 Cu3 Sb3 O16,0.0,8
15099,Ba2 Nb6 N2 O14,0.8202999999999998,1
15100,Li4 V4 F16,2.0631,12
15101,Li2 Fe2 F8,3.6927000000000003,15
15102,Ti3 Co2 Te1 P6 O24,0.4925999999999999,146
15103,Li12 Fe8 F36,3.8723,62
15104,Li4 Mn2 Fe3 Sb1 P6 O24,1.1098999999999997,1
15105,Ta4 Cr2 N2 O10,1.4326000000000003,8
15106,Al4 Fe4 O12,2.1089,62
15107,Na8 Ti8 O16,0.10899999999999999,61
15108,Li2 Fe4 F18,0.6686000000000001,9
15109,Li5 Fe3 Cu2 P6 O24,0.13579999999999992,1
15110,Li2 Mn6 B6 O18,0.2788999999999999,2
15111,Li24 La8 Ni8 O32,2.6290999999999998,88
15112,Li32 Ca8 Ni8 O32,2.6919000000000004,61
15113,Li3 V4 O3 F9,1.4939,1
15114,Li4 Fe8 O12 F4,1.5570999999999997,9
15115,Li6 Fe6 F24,3.3558,144
15116,Li2 Cr2 P8 O24,2.5340000000000003,4
15117,Li12 Mn4 B32 O60,1.3799000000000001,14
15118,Li16 Fe16 F48,3.0421,88
15119,Li4 Mn6 F16,2.7893,15
15120,Li8 Fe8 F32,3.4886,62
15121,V3 O6,0.2394999999999996,12
15122,Ti4 Mn16 O40,1.4752999999999998,12
15123,Li3 Fe2 Sb1 O6,0.0,12
15124,Li4 Ti1 Mn3 Cr2 P6 O24,1.1456,1
15125,Li10 Fe10 F30,3.0155000000000003,2
15126,Li3 V6 O3 F15,0.7904999999999998,1
15127,Li4 Mn5 V1 P6 O24,0.08599999999999985,1
15128,Li2 V2 F8,2.0654,63
15129,Ba24 Ce12 O42,0.0,14
15130,Fe6 O7 F5,0.0,1
15131,Na8 Fe4 O12,0.09160000000000001,64
15132,Li4 Fe2 B2 P2 O14,0.22659999999999997,11
15133,Li2 Ni1 O2,1.938,166
15134,Fe10 O4 F16,1.6033000000000002,14
15135,Li16 V8 Si4 P8 O48,1.9381,1
15136,Li6 Si4 Ni4 O16,0.9791999999999998,7
15137,Li12 V16 O12 F36,1.3969999999999998,1
15138,Li12 Bi4 B8 S2 O32,0.13070000000000004,203
15139,Li4 Ni16 P24 O84,0.0,14
15140,Fe6 O8 F4,0.0,1
15141,Fe6 O8 F4,0.0,8
15142,Fe6 O8 F4,0.0,2
15143,Li4 Mn8 B8 O24,0.0,2
15144,Li8 Ti1 Mn3 P6 O24,1.5922,146
15145,Li7 Fe1 Co3 P6 O24,0.0,146
15146,Li2 Mn4 B4 O12,0.006799999999999917,2
15147,Sm12 B20 O48,3.8775,62
15148,Mn12 O2 F22,0.1977,3
15149,Li6 Cr6 P8 O32,1.976,4
15150,Na12 B8 Sb4 P2 O32,0.0,203
15151,Ho12 Sb12 O42,1.8317999999999994,5
15152,Li4 Cr7 P6 O24,1.6815000000000002,8
15153,Cr19 O48,0.309,1
15154,Li4 Cu4 P16 O44,0.3498999999999999,1
15155,Fe10 O11 F9,0.06980000000000008,1
15156,Cr2 O2,0.0,15
15157,Mn6 O8 F4,0.0,65
15158,Li6 Mn4 P14 O42,4.0146,2
15159,Li4 V2 P2 O10,1.0671,7
15160,Li4 Fe2 Ni3 Sn1 P6 O24,3.0225000000000004,1
15161,Ca18 La10 Cl66,3.6799,2
15162,Y4 Nb8 N4 O20,2.5478,2
15163,Na8 V4 P2 C8 O32,0.0,70
15164,Li3 Fe3 O4 F4,1.7117,6
15165,Li8 Fe8 P16 O56,1.4647,1
15166,O6 Sr2 Y1 Re1,0.0,225
15167,O3 Ba1 Th1,3.2009000000000003,221
15168,Na2 Cr4 O8,0.0,227
15169,Li8 Mn2 Si6 O18,2.8622,5
15170,Li4 Cu2 P6 H4 O20,1.6397,2
15171,Li3 Mn5 Cu2 O12,0.0,5
15172,Li8 Mn8 Si12 O36,2.856,62
15173,Li4 Mn10 Cu4 O24,0.06130000000000013,4
15174,Mn12 O14 F10,0.0,1
15175,Li2 Fe5 O5 F7,1.6714,1
15176,Li5 Co4 Si6 O20,0.17579999999999996,1
15177,Li1 V6 O7 F5,1.3164999999999996,1
15178,Cu8 H96 N16 O16 F32,0.0116,14
15179,Li8 Fe8 P16 O56,1.5473,1
15180,Li6 Mn8 P16 O56,0.05459999999999998,1
15181,Na4 Co2 O6,0.0,2
15182,Mn12 O10 F14,0.0,1
15183,Fe8 O6 F10,1.3047,2
15184,Na12 Ni8 O16,0.0,62
15185,Li7 Ti1 Cr3 P6 O24,0.0,146
15186,Li6 V8 O6 F18,1.1747,1
15187,Fe8 O10 F6,0.0,12
15188,Li2 Mn4 B4 O12,0.022599999999999953,2
15189,Li4 Mn4 P16 O48,1.1233,14
15190,Li4 Ti3 Fe3 Ni2 O16,0.01529999999999987,8
15191,Li4 Co12 O4 F20,2.0078,1
15192,Li8 Co18 O36,0.0,10
15193,Li3 Cr3 Fe1 O8,0.0,166
15194,Li4 Co1 O2 F2,1.8577999999999997,12
15195,Fe10 O15 F5,0.0,38
15196,Li8 Al4 Co4 O16,0.8363999999999998,14
15197,Fe6 O6 F6,1.2988,1
15198,Mn3 Co3 Sb2 O16,0.5298000000000003,1
15199,Ta8 Cr3 O24,0.0,5
15200,Li12 Co12 P12 O48,2.7350999999999996,181
15201,Tm1 Nb1 Os2,0.0,166
15202,Cs2 As2 H12 C4 Se4,2.2014,15
15203,Li4 Mn3 Co2 Ni3 O16,0.0,8
15204,Li4 Fe2 Si6 O16,3.3017000000000003,1
15205,O2 S2 Cu2 Zn1 Sr2,0.673,139
15206,O8 Cu4 Ge2,0.0,141
15207,Si23,1.3309000000000006,217
15208,Nd1 Y1 Ir2,0.0,225
15209,Rb4 Mg2 H8,3.2815,63
15210,Pr2 H2,0.0,186
15211,Ho3 Zr1,0.0,139
15212,Lu3 Sn1,0.0,139
15213,Ce1 Y3,0.0,221
15214,Fe6 Mo2,0.0,194
15215,Li6 P1 S5 Cl1,2.1375,216
15216,H2 C12,0.0,2
15217,Li2 Co6 O12,0.6197000000000001,1
15218,Cs4 Sc4 Br12,0.0,62
15219,Ca3 Fe2 W2 O12,1.6917,160
15220,Al4 Cu6 Se12,0.0,122
15221,Ca2 Cu4 As8 O28,0.36819999999999997,4
15222,Eu4 Cu4 O12,0.0,15
15223,Ca5 Cu2 Rh2 O12,0.005199999999999871,1
15224,Ta4 Mn2 Zn2 O16,1.1542000000000001,5
15225,Mn2 Zn4 Sb2 O12,0.7836000000000003,11
15226,Zn4 Sn4 O12,1.9182999999999995,62
15227,Ca4 Cu2 N4,0.18579999999999997,12
15228,Zn2 Sn3 O8,1.7840000000000003,12
15229,Ti3 Zn2 O8,2.4535000000000005,12
15230,Al10 Co6 O24,0.2671999999999999,1
15231,Y8 Be12 Fe6 Si12 O60,0.0,1
15232,Mg4 Co2 N4,0.0,12
15233,Y1 Sn1 F5,3.0621,71
15234,Mg2 Ti4 S8,0.0,227
15235,Zn2 Ni3 O8,0.9535999999999998,12
15236,Ca4 W4 F20,3.7607,14
15237,Y6 V6 O18,1.0432000000000001,185
15238,Mg4 Ti4 O12,2.6362,62
15239,Ca4 Ti4 O10,0.0,26
15240,Mg12 Si12 Mo8 O48,3.297999999999999,230
15241,Ca4 Co4 O10,0.0,55
15242,Mg4 Cu2 W2 O12,0.4165000000000001,14
15243,Zn4 Fe2 W2 O12,2.4585999999999997,14
15244,Bi8 O16,0.41510000000000025,26
15245,Zn4 Fe2 Ir2 O12,0.0,14
15246,Mg2 Co4 S8,0.7116999999999996,227
15247,Zn4 Cr4 Ge8 O24,0.45930000000000026,14
15248,Ca4 Mn16 O32,0.5411999999999999,1
15249,B1 As1,1.2036999999999995,216
15250,Mg1 Mn3 O6,0.0,8
15251,Mg6 Ga1 Bi1,0.0,38
15252,La1 Ni3 Rh2,0.0,191
15253,Y1 Mg6 Sn1,0.0,38
15254,Ca1 Mg6 Cd1,0.0,38
15255,Ca1 Mg6 Cd1,0.0,38
15256,Li1 Ca1 Mg6,0.0,38
15257,Mg6 Al1 Sn1,0.0,38
15258,Te2 Mo2 S2,0.0,156
15259,Na8 Zn12 S16,2.7657,61
15260,V2 Fe1 Te4,0.0,12
15261,Mg14 Ti1 Bi1,0.0,187
15262,Hf1 Mg14 Sb1,0.0,38
15263,Mg14 Cd1 Si1,0.0,38
15264,La1 Mg14 Cd1,0.0,187
15265,Li1 Hf1 Mg14,0.0,38
15266,Li1 Mg14 Bi1,0.0,187
15267,La1 Ce1 Mg14,0.0,38
15268,Te2 Mo2 W2 Se4 S2,0.0,156
15269,Te2 Mo1 W3 Se4 S2,0.0,156
15270,Te2 Mo1 W3 Se4 S2,0.0,156
15271,Te2 Mo2 W2 Se4 S2,0.0,156
15272,Te2 Mo2 W2 Se4 S2,0.10840000000000005,156
15273,Te4 Mo3 W1 S4,0.0,156
15274,Te4 Mo3 W1 S4,0.0,156
15275,Te4 Mo4 S4,0.28679999999999994,164
15276,Te4 Mo3 W1 S4,0.0,156
15277,Te2 Mo3 W1 Se4 S2,0.0,156
15278,Li1 Mg14 Co1,0.0,187
15279,Te4 Mo4 S4,0.0,156
15280,Mg14 Zn1 Ni1,0.0,187
15281,Ca1 Mg14 Sn1,0.0,38
15282,Mg14 Zr1 Al1,0.0,38
15283,Ca1 Ce1 Mg14,0.0,187
15284,Ce1 Mg14 Al1,0.0,38
15285,La1 Mg14 Al1,0.0,38
15286,Te2 Mo1 W3 Se4 S2,0.0,156
15287,Te6 Mo1 W3 S2,0.0,156
15288,Te6 Mo1 W3 S2,0.001100000000000101,156
15289,Te2 Mo2 W2 Se4 S2,0.0,156
15290,Te2 Mo1 W3 Se4 S2,0.0,156
15291,Te4 Mo2 W2 Se2 S2,0.042100000000000026,156
15292,Te4 Mo2 W2 Se2 S2,0.0,156
15293,Te4 Mo2 W2 Se2 S2,0.0,156
15294,Te6 Mo1 W3 S2,0.0,156
15295,Te6 Mo1 W3 S2,0.0,156
15296,Rb4 Co4 N4,0.0,62
15297,Te4 Mo2 W2 Se2 S2,0.16369999999999996,156
15298,Te6 Mo1 W3 S2,0.0,156
15299,Te4 Mo2 W2 Se2 S2,0.08820000000000006,156
15300,Te4 Mo3 W1 S4,0.0,156
15301,Te6 Mo1 W3 S2,0.0,156
15302,Te4 Mo3 W1 S4,0.0,156
15303,Te4 Mo3 W1 S4,0.33930000000000016,156
15304,Te4 Mo2 W2 Se2 S2,0.0,156
15305,Te4 Mo2 W2 Se2 S2,0.005199999999999871,156
15306,Te4 Mo2 W2 Se2 S2,0.0,156
15307,Te4 Mo2 W2 Se2 S2,0.0,156
15308,Mg6 Cd1 Cu1 O8,0.0,123
15309,Na1 Mg6 Fe1 O8,1.4968999999999997,123
15310,Mg6 Zn1 Cd1 O8,1.2662000000000004,123
15311,Mg6 Zn1 Fe1 O8,1.8576999999999995,123
15312,Mg6 Mn1 Cd1 O8,0.40610000000000035,123
15313,Mg6 Mn1 Fe1 O8,0.9451999999999998,123
15314,Na1 Mg14 W1 O16,2.4840999999999998,123
15315,Li1 Mg14 Bi1 O16,2.1323999999999987,47
15316,Li1 Mg14 Bi1 O16,2.4000000000000004,123
15317,Ba1 Mg30 Co1 O32,2.8342,123
15318,Sr1 Y1 Mg30 O32,0.45619999999999905,123
15319,Ba1 Mg30 Fe1 O32,2.8933,123
15320,Rb1 Mg30 Fe1 O32,2.4850000000000003,123
15321,Ca1 Hf1 Mg30 O32,0.3498000000000001,123
15322,Ca1 Hf1 Mg30 O32,0.31789999999999985,123
15323,Ba1 Mg30 Mn1 O32,2.9053000000000004,123
15324,Ca5 Mg1,0.0,187
15325,Ca4 Mg8,0.18009999999999993,63
15326,Ce8 Mg4,0.0,63
15327,Rb1 Mg30 Ga1 O32,3.8484,123
15328,K1 Mg30 W1 O32,2.7596,123
15329,K1 Li1 Mg30 O31,2.5164999999999997,25
15330,Mg6 Cr12 O24,0.9102000000000001,156
15331,Mg6 Mo12 O24,1.6158000000000001,1
15332,Ho2 Mg2 Cr4 O12,0.5098000000000003,7
15333,Ho2 Mg2 Mn4 O12,0.0,31
15334,Ca2 Ti6 P6 O26,0.0,11
15335,Ca2 Bi6 P6 O26,2.869,11
15336,Zn2 Ag1 W1 O6,0.13979999999999992,1
15337,Mg2 Sn2 Ge4 O12,2.2264000000000004,15
15338,Sr4 Al2 Co2 Cu4 O14,0.0,1
15339,Ca4 As8 W4 O28,3.075,14
15340,Zn4 Ni4 Mo4 P8 O36,0.0,2
15341,Ni4 Sb4 P8 O36,0.0,2
15342,Ti4 Zn4 Bi4 O20,0.0,14
15343,Ti2 Zn2 Sn2 P6 O24,0.0,161
15344,La2 Mn2 Zn2 Fe2 O12,1.3254000000000001,7
15345,La2 Mg2 Fe2 Ag2 O12,0.07800000000000029,7
15346,La2 Mg2 Fe2 W2 O12,2.3537,7
15347,La2 Mg2 Ta2 Fe2 O12,2.8630000000000004,7
15348,V6 Zn2 P8 O28,0.45389999999999997,14
15349,Pr2 Mg2 Cu4 O12,0.0,31
15350,Ca6 Bi12 O24,1.6580999999999997,156
15351,Ba6 Y3 V6 F33,2.4633,145
15352,Sr2 Zn2 Sn2 P4 O16,3.2386999999999997,2
15353,Sr2 Co2 P4 O16,0.017299999999999982,2
15354,Zn2 Co2 P2 O10,0.1221000000000001,1