Index,Composition,bandgap,spgN
26307,Ca2 Ti4 P4 O20,2.5527999999999995,43
26308,Mg4 Fe4 Si16 O40,3.771,130
26309,Zn2 Ni6 P8 O28,3.1799999999999997,14
26310,Mg2 V4 P4 O20,1.7264,43
26311,Ca2 La2 Fe2 Ag2 O12,0.0,7
26312,Zn2 Fe6 P8 O28,2.1894,14
26313,V12 Zn4 O28,2.0684000000000005,62
26314,Mg4 Fe4 Bi4 O20,0.5377000000000001,14
26315,Ba4 Ca2 Cu2 Sb4 F28,0.7274,1
26316,Sr4 Y2 Cu4 Ag2 O14,0.0,1
26317,Mn6 Zn2 P6 O26,0.14610000000000012,11
26318,Ca1 Ti2 S4,0.0,12
26319,Zr2 Sb3 Pd1,0.0,115
26320,Pu1 B2 Ir3,0.0,191
26321,Tm2 Se4,0.0,129
26322,Sr20 Ca12 Mn16 Fe16 O80,0.0,1
26323,Sr16 Ca16 Mn20 Fe12 O80,0.0,1
26324,Rb1 Ta1 O3,2.0023999999999997,221
26325,Sr12 Ca20 Mn28 Fe4 O80,0.0,1
26326,Sr3 Ca5 Mn3 Fe5 O24,0.0,1
26327,U2 Sb2 Pd2,0.0,194
26328,Ta2 P2 S2,0.0,71
26329,Tb2 Fe2 Ge4,0.0,63
26330,Pr2 Ni4 Bi4,0.0,129
26331,Al2 Mn2 Pt2,0.0,194
26332,Na8 Zn2 Se6,1.6877,1
26333,Mg4 Sn8,0.0,12
26334,Sr4 Mg4,0.0,12
26335,Mg6 Zn2,0.0,44
26336,Mg2 Zn6,0.0,139
26337,Mg4 Sn8,0.0,63
26338,Mg5 Ga1,0.0,189
26339,Mg6 Ga6,0.0,8
26340,Mg1 Sn1,0.0,221
26341,La3 Mg1,0.0,25
26342,Al8 Zn2 S14,3.0107,31
26343,Mg30 Ti1 Cr1 O32,0.0,123
26344,Mg30 Ti1 Cr1 O32,0.0,123
26345,Li9 Mn7 O16,0.0,12
26346,Li9 Mn7 O16,0.0,2
26347,Li9 Mn7 O16,0.0,2
26348,V1 Rh1 O4,0.0,65
26349,V3 Cr1 Co2 P6 O24,0.0,146
26350,V14 Fe5 O32,0.0,1
26351,Tl2 Sb4 O12,0.006200000000000205,74
26352,Zr2 U8 O20,0.0,12
26353,Ti3 Fe1 Co2 P6 O24,0.0,146
26354,Ti1 Cr2 Fe3 P6 O24,0.0,146
26355,Sr2 Ti6 N2 O11,1.8181000000000003,8
26356,Fe2 P8 O24,0.22429999999999994,15
26357,Li2 Cu2 Te1 O6,0.07030000000000003,12
26358,K2 Te2 O8,0.0,15
26359,Ba1 Dy1 Fe4 O7,0.0,82
26360,Y1 Mo6 Se8,0.0,148
26361,Er1 Mn6 Sn6,0.0,191
26362,Sn1 Mo6 Se8,0.0,148
26363,Ba1 Ho1 Fe4 O7,0.0,82
26364,Ba1 Er1 Fe4 O7,0.0,82
26365,Ce4 Te10,0.0,63
26366,Na2 Mn1 P2 O7 F3,0.23029999999999995,1
26367,Er3 Ga8 Ir3,0.0,71
26368,In1 Mo6 S8,0.0,148
26369,Ce4 Fe3 B6,0.0,166
26370,Cs1 V5 Se8,0.04070000000000018,12
26371,Co4 P2 O10,0.0,141
26372,Lu1 Mn4 Cu3 O12,0.0,204
26373,Li4 H8 N4,2.874,19
26374,Gd4 Mo4 C8,0.0,62
26375,Rb3 Y1 Cl6,4.6,225
26376,Tb1 Rb3 Cl6,4.5912,225
26377,Rb3 Sm1 Cl6,4.5614,225
26378,Rb2 Ce1 Ag1 I6,0.21369999999999978,225
26379,K2 Y1 Ag1 F6,2.6292999999999997,225
26380,K2 Tl2 Cl6,0.9019999999999999,225
26381,K2 Rb1 Ti1 F6,0.0,225
26382,K2 Na1 In1 Br6,1.8451,225
26383,K2 Dy1 Cu1 Cl6,2.3502,225
26384,K2 Y1 Cu1 Cl6,2.3935000000000004,225
26385,K2 Ag1 Ir1 F6,1.299,225
26386,Cs2 Al1 Tl1 Br6,2.7951,225
26387,Cs2 Rb1 Sb1 I6,2.3768000000000002,225
26388,Cs2 Hg1 Pd1 F6,0.0,225
26389,Cs3 Sb1 F6,3.7971,225
26390,Cs2 Cu1 Sb1 I6,0.034900000000000375,225
26391,Cs2 Sb1 Au1 I6,0.0,225
26392,Cs2 K1 In1 I6,1.2626,225
26393,Cs2 K1 Al1 Br6,3.1203,225
26394,Eu1 Rb2 Au1 Cl6,0.0,225
26395,Cs1 Rb2 In1 Cl6,3.715,225
26396,K1 Rb2 Au1 F6,0.7616,225
26397,Rb2 Na1 Ga1 Cl6,2.7465,225
26398,Rb2 In2 I6,0.0,225
26399,Na3 Pd1 F6,0.0,225
26400,Li8 S4,3.8953999999999995,62
26401,Ba2 Cu4 Hg4 O8,0.9027999999999998,125
26402,Ba3 Fe2 Br1 O5,0.0,47
26403,Ba4 Cu3 Se1 O6,0.0,229
26404,Li4 Cr2 P2 O8 F2,2.6679,1
26405,Ta3 O7 F1,2.0143000000000004,65
26406,Sr8 La4 Mg2 Ru4 O24,0.0,12
26407,Pr4 Nb12 O36,1.7342,2
26408,Li6 Mn4 O10,0.4721000000000002,2
26409,Li6 Mn4 O10,0.47260000000000035,2
26410,Li6 Mn2 Co2 O10,1.1073000000000004,1
26411,Li6 Mn2 Co2 O10,1.0093,5
26412,Li6 Mn2 Co2 O10,1.0833,1
26413,Li7 Co5 O12,0.7355999999999998,2
26414,Li5 Mn3 O8,0.8552,12
26415,Li5 Mn3 O8,0.5693000000000001,2
26416,Li7 Mn4 Co1 O12,0.37670000000000003,2
26417,Li7 Mn4 Co1 O12,0.41720000000000024,2
26418,Li7 Mn4 Co1 O12,0.4337,1
26419,Li7 Mn4 Co1 O12,0.5568999999999997,1
26420,Li7 Mn4 Co1 O12,0.1842999999999999,12
26421,Li7 Mn4 Co1 O12,0.5181999999999998,12
26422,Li7 Mn4 Co1 O12,0.28710000000000013,12
26423,Li7 Mn4 Co1 O12,0.033099999999999685,12
26424,Li7 Mn4 Co1 O12,0.23519999999999985,12
26425,Li7 Mn4 Co1 O12,0.0,10
26426,Li7 Mn4 Co1 O12,0.22619999999999996,8
26427,Na4 Co6 O8,0.6867999999999999,15
26428,Mn8 O8 F8,0.16979999999999995,1
26429,Mn2 Co2 O8,0.0,74
26430,Mn6 O4 F8,0.04689999999999994,2
26431,Li2 V6 O2 F22,0.0,1
26432,Mn3 V1 Cu2 P6 O24,0.02540000000000009,146
26433,Li2 Bi2 P8 O24,4.9989,4
26434,Li12 Mn2 V6 P12 O48,0.7753999999999999,2
26435,Li12 Mn2 V6 P12 O48,0.48060000000000014,5
26436,Li12 Mn2 V6 P12 O48,0.2693000000000001,1
26437,Li4 Ti5 Co3 O16,0.8210999999999999,1
26438,Li8 V6 P16 O58,1.1108,5
26439,Li10 Fe8 P16 O56,1.4725,1
26440,Li12 V4 As8 O36,1.7558,33
26441,Li6 Mn2 V2 P6 O24,0.6268000000000002,1
26442,Li6 Mn8 O16,0.0,1
26443,Li12 Mn16 O32,0.0,1
26444,Li2 Ti1 Fe1 O4,0.25459999999999994,22
26445,Li8 Mn12 Ni4 O32,1.5322999999999998,1
26446,Li2 Fe1 B2 O6,0.0,148
26447,Fe8 O2 F14,1.5728000000000002,1
26448,Li19 Cu4 H8 O16,0.0,1
26449,Eu8 Co4 O16,0.0,14
26450,Co10 O5 F15,0.6881,38
26451,Fe12 O6 F12,2.0335,15
26452,Ca3 Fe5 Sn3 O16,0.0,6
26453,Te1,0.0,166
26454,Np4 N4 O20,0.02529999999999999,4
26455,K2 Se6,0.8306000000000001,5
26456,Ca4 H8,0.7404000000000002,62
26457,Ca6 Co2 O12,0.0,167
26458,Ag8 Se4,1.7035,19
26459,Ac2 Eu6,0.0,194
26460,Ac1 Tb3,0.0,139
26461,Ce1 Pa3,0.0,221
26462,Ce1 As3,0.0,221
26463,Ce2 Zn1 In1,0.0,225
26464,Ce1 Dy1 Mg2,0.0,225
26465,Cs1 Rb3,0.0,221
26466,Cs1 Rb3,0.0,139
26467,Dy1 Sb1 Rh2,0.0,225
26468,Er6 Mg2,0.0,194
26469,Ga3 Pb1,0.0,225
26470,Eu1 Au3,0.0,225
26471,Ga3 Pb1,0.0,139
26472,Hf3 Hg1,0.0,139
26473,La4 Sb4 Te4,0.3098000000000001,62
26474,Li1 Rh3,0.0,139
26475,Mg16 Al12 Bi1,0.0,160
26476,Mg16 Al12 Ge1,0.0,160
26477,Mg16 Al12 Sn1,0.0,217
26478,Nd6 Cd2,0.0,194
26479,Pa2 Sb6,0.0,194
26480,Pm3 Mg1,0.0,139
26481,Pm2 Bi6,0.0,194
26482,Pr3 Mg1,0.0,139
26483,Sr2 Eu6,0.0,194
26484,Tb3 Th1,0.0,139
26485,Tc6 Ge2,0.0,194
26486,Tl3 In1,0.0,221
26487,Y3 Th1,0.0,139
26488,V10 P6,0.0,193
26489,Pr2 Br6 O12,1.6958,13
26490,Cr8 B8 Ir4,0.0,58
26491,Cu5 P2 O12,0.0,2
26492,Rb3 Se3 O12,0.5433000000000001,5
26493,Tm4 Mo4 C8,0.0,62
26494,Rb2 Pr2 Nb4 O14,1.3643999999999998,74
26495,Li4 C4 O8,3.5793,14
26496,Ce2 Fe17 H3,0.0,166
26497,Co2 B8 O14,3.0782,63
26498,Y6 Al2 Fe2 S14,0.35299999999999976,4
26499,Na2 U1 I4 O15,1.9427999999999999,5
26500,Sm6 Ga2 Co2 Se14,0.1349999999999998,173
26501,La6 Be2 Al2 S14,2.1837,173
26502,Nd2 Mn3 Cu9 As7,0.0,174
26503,Ce4 Mo4 O16 F4,0.0030000000000001137,14
26504,Bi6 As4 O20,0.0,2
26505,Al5 Re24,0.0,217
26506,Th2 N8 F16,2.1513999999999998,2
26507,Fe6 P4 O20,0.17300000000000004,14
26508,H32 C20,4.9387,114
26509,Ba6 V4 H24 C20 O56,2.8345000000000002,15
26510,Pb16 N8 O40,0.1655000000000002,61
26511,Si20 H114 C38,3.1274999999999995,2
26512,Co4 H8 Pb4 N12 O32,2.4508,15
26513,Ca4 Al4 Fe2 Si6 O26,0.0,11
26514,Cr2 H12 C6 S12 N6,1.7986,148
26515,Ho8 In10 S26,0.0,55
26516,Na4 Co4 P4 H40 C4 O40,3.1122,14
26517,Na4 Ni2 Mo12 H52 N4 O60,2.7751,14
26518,Nd18 C18 O72,0.07820000000000005,174
26519,Na12 Mg6 B18 P12 H6 O76,0.4051999999999999,173
26520,Cu16 S4 O40,0.0,14
26521,Sr8 Ni8 Ru40 O88,0.0,11
26522,Zn8 H80 C16 Se32 N16,1.3290000000000002,33
26523,Re8 H96 C24 S24 N48 Cl48,1.04,61
26524,Na8 Pr4 Ge4 O20,0.5347999999999999,62
26525,Nd4 Ti4 Cr4 O20,1.3119999999999998,55
26526,K8 S16 N8 O32 F16,5.4297,14
26527,Zn1 H20 Pt1 C4 N4 O12,3.0594,23
26528,La8 Co8 O20,0.5644,62
26529,Rb8 V8 P8 O48,0.38439999999999996,61
26530,Na4 Ga8 P8 O36,0.3749,14
26531,Cd16 H48 S16 O72,3.4442,14
26532,Pu4 P8 H16 C4 O28,0.03180000000000005,2
26533,Ca4 Zn8 As8 O34,0.05130000000000001,15
26534,Sn4 H32 C8 I12 N4,2.8443,33
26535,Pu8 P16 H32 C8 O56,0.028300000000000214,61
26536,Na2 Sr6 Ce2 P6 O26,0.0017999999999998018,147
26537,Rb4 V4 P8 O32,1.2026,14
26538,Al2 Cu12 H36 S2 Cl2 O38,0.40600000000000014,159
26539,Na12 Fe4 H40 C24 O68,2.584,15
26540,Si16 Sb4 H152 C56 Cl4,3.4994,14
26541,Zn4 Si16 H144 C48 N8,3.7517,14
26542,Na4 Sm4 P8 H16 C4 O28,5.1897,14
26543,K4 H20 C12 N8 O20,3.1253,58
26544,K8 Mo4 H12 S4 O18,3.4072999999999998,15
26545,Si8 P16 H192 C64 Br8 N8,3.9152,61
26546,Cu4 Si8 Bi4 P12 H180 C60,2.0353000000000003,43
26547,Ce4 Bi4 W8 O36,0.0730000000000004,15
26548,Cd6 H12 C4 I12 N4 O4,2.5565,34
26549,Ba28 In8 Cu4 N14,0.0,10
26550,Ca2 H4,0.706,63
26551,Bi6 P4 O20,0.0,2
26552,Sm2 Ge6 Rh1,0.0,38
26553,Cr1 Ag3 F6,0.21789999999999998,225
26554,Yb8 B24 Rh4,0.0,55
26555,Ti3 Mn3 Sn12,0.0,180
26556,Ti4 Fe1 Bi6 O18,0.47280000000000033,42
26557,Tb8 Cu8 O20,0.48,33
26558,Sm12 Al78 V16,0.0,193
26559,Rb3 Se3 O12,0.6405000000000001,1
26560,Pr6 Al2 Co16,0.0,194
26561,Pr6 Nb2 Sb10,0.0,193
26562,Nd6 Co16 Sn8,0.0,186
26563,Na3 P6 Pb2 O18,0.5991999999999997,2
26564,Mg8 B4 O16,0.27090000000000014,62
26565,La4 Mg2 Nb2 O12,0.20060000000000144,14
26566,K4 Ho2 Nb10 O30,1.9064,127
26567,Hf4 Fe4 Sb4,0.0,62
26568,Fe3 Pb4 Br1 O8,1.2027,123
26569,Er2 Ta10 Ag4 O30,2.5844000000000005,127
26570,Cs4 Eu4 P4 O16,1.0236999999999998,62
26571,Ce16 Cd4 Pt4,0.0,216
26572,Ca6 Tl2 O10,0.0,63
26573,Ca7 Mg6 Si14,0.0,191
26574,Bi12 Ru1 O20,0.7347000000000001,197
26575,Ba8 Ge46,0.0,223
26576,Zr5 Co4 Ni1,0.0,123
26577,Y1 Zr1 S2,0.0,166
26578,Zr2 Ga3 Co1,0.0,8
26579,Y1 Sc1,0.0,187
26580,Y1 Sc1 N2,0.0,166
26581,Y1 Al1 Co4,0.0,187
26582,Y1 Co4 Si1,0.0,187
26583,Y4 U1 S7,0.0,8
26584,Y1 Fe6 Co5 W1,0.0,44
26585,Y2 Mn4 Al2 B4 O16,2.6955,7
26586,Zn1 Cu3 W4 O16,0.3589000000000002,1
26587,V1 Cu1 P2 S6,0.15879999999999983,1
26588,V5 Fe5 Si6,0.0,38
26589,Tm1 Co1 C1,0.0,47
26590,Tl3 Bi1,0.0,187
26591,U1 Fe10 Mo2,0.0,71
26592,U4 Mn4 Al4,0.0,38
26593,Ti2 Ni1 Pd1,0.0,25
26594,Ti6 Ir4,0.0,123
26595,Th1 Al2 Ni3,0.0,191
26596,Te1 Mo2 S3,0.6795,156
26597,Th2 Si2 Ge2,0.0,74
26598,Tb8 Cu8 Te16,0.5785,164
26599,Ta4 V6 Cu2,0.0,194
26600,Sr1 Ce1 V1 O4,0.0,107
26601,Sr3 Nb1 Co1 O7,0.0,107
26602,Sr4 Cu3 Ni1 O8,0.06629999999999958,38
26603,Sr2 Nd1 Cu2 Ru1 O9,0.0,164
26604,Sr10 Cu5 Mo1 W4 O30,0.0,87
26605,Sr4 Ca2 Cu12 B12 O36,0.23609999999999998,1
26606,Sn4 Sb2 S4 I6,1.1362,36
26607,Sm1 In7 Cu5,0.0,44
26608,Sm1 Co10 Mo2,0.0,71
26609,Sm4 U2 Te10,0.0,25
26610,Rb1 In1 Te6 Mo6,0.06459999999999955,6
26611,Pr1 Mn2 Si1 Ge1,0.0,107
26612,Pr2 Cr2 Co15,0.0,12
26613,Nd4 Zr4 N4 O8,2.0162000000000004,14
26614,Nb6 Ga1 Sn1,0.0,200
26615,Nb6 Ga1 Sb1,0.0,200
26616,Nd2 In3 Ni1,0.0,25
26617,Ni1 Pt12 O16,0.0,47
26618,Na2 Yb2 Ti4 O12,0.0,31
26619,Nb2 Bi3 Pb2 Cl1 O11,1.1016000000000004,123
26620,Na1 Pr2 Cl6,0.0,147
26621,Nd8 Cr6 Fe50 B4,0.0,35
26622,Mn1 Ni1 Sn1 Pd1,0.0,216
26623,Na4 Li5 W10 O30,1.1501000000000001,1
26624,Na2 Ca5 Ti1 Si4 O16 F2,0.0,1
26625,Mn1 Zn1 S2,0.4462999999999999,156
26626,Mn2 Cr2 Si4,0.0,4
26627,Mn1 Cr4 Co1 S8,0.0,216
26628,Mn3 Te2 Se1,0.0,71
26629,Mn3 Al2 V3,0.0,160
26630,Mo13 O33,0.0,1
26631,Mn1 Ga2 S4,0.6006999999999998,6
26632,Mg1 Fe4 Ni1 O8,1.443,12
26633,Mn12 Rh4 N1,0.0,10
26634,Mg4 Sc1,0.0,166
26635,Mg2 Nb3 Bi3 O14,2.6470000000000002,166
26636,Mg3 Ti4 P6 O24,0.05209999999999937,2
26637,Li4 Ga4 P4 O17 F3,0.08709999999999996,1
26638,Na1 Fe9 H18 S6 O44,0.11959999999999993,12
26639,La3 Mn4 Ag1 O12,0.0,3
26640,Ho1 Co1 C1,0.0,123
26641,In3 Ga1 N4,0.0,156
26642,Ho1 Al1 Ni4,0.0,187
26643,Hf1 Ti1,0.0,187
26644,Hf1 Nb1 N2,0.0,166
26645,In4 Co12 C3,0.0,123
26646,Fe14 Co4 O24,0.48030000000000017,15
26647,Dy4 Cr1 S7,0.0,8
26648,Er1 In2 Sn1,0.0,123
26649,Er1 Co1 C1,0.0,47
26650,Er4 Cd1 S7,1.2697000000000003,8
26651,Er4 Th1 C1 N4,0.0,139
26652,Er1 Al1 Ni4,0.0,187
26653,Er1 Mn4 Fe2 Sn6,0.0,35
26654,Eu3 Ni7 B2,0.0,187
26655,Co7 Ge4,0.0,187
26656,Cr6 Co2 Cu1 Se12,0.0,12
26657,Cr1 Fe1 Sb4,0.0,10
26658,Gd2 Ti12 Cu9 O36,0.0,147
26659,Cr3 Rh3 S8,0.0,2
26660,Co3 Rh1,0.0,187
26661,Co3 Ir1,0.0,187
26662,Ce1 U1 N2,0.0,123
26663,Ce1 Mn1 Si2 Pd1,0.0,119
26664,Ce1 Dy1 C4,0.0,123
26665,Co3 Ni9 P4,0.0,1
26666,Ce2 Co5 Cu5,0.0,47
26667,Ca1 La1 Fe1 O4,0.7568999999999999,107
26668,Ce1 In7 Cu5,0.0,44
26669,Ba2 V2 Se2 S4,0.0015000000000000568,6
26670,Ce2 Si5 Ni17,0.0,119
26671,Ba1 Sr3 Ca2 Mo2 O12,2.2674999999999996,160
26672,Ba1 La1 Mn1 Sn1 O6,0.8348000000000004,8
26673,Ba4 Ca1 Nd3 Co8 O22,0.0,42
26674,Bi13 Pb3 Cl7 O19,0.6150000000000002,8
26675,Ba4 Pr3 Bi1 O12,0.0,2
26676,Al2 Ni1 Pt1,0.0,123
26677,Ba2 Fe5 Bi1 Pb2 O13,1.0736999999999997,12
26678,Ba4 Nd2 Cu6 Ni1 O15,0.0,44
26679,As32 S32,0.6166,29
26680,O3 Tb2,4.1342,164
26681,O6 Rb4 Tb2,0.0,36
26682,B6 Ni3 Yb2,0.0,65
26683,Ti2 Hg2,0.0,123
26684,F8 Mg2 Sr2,6.2322999999999995,63
26685,Si3 Ag3 Yb3,0.0,189
26686,O21 Zn4 Ba5 Yb8,0.0,87
26687,S14 Mn2 Fe2 La6,0.05370000000000008,173
26688,O2 Mn3 Sb2 Ba2,0.0,139
26689,Sm1 Al4,0.0,139
26690,Li2 O10 V4,0.27370000000000005,63
26691,O48 Al8 W12,4.5569,60
26692,Na4 Sb4 O12,1.4933999999999998,227
26693,Mn2 Sb10 U6,0.0,193
26694,Mn12 Nd1,0.0,139
26695,Mn3 Sn1 C1,0.0,221
26696,V10 Ge6,0.0,193
26697,O4 K2,0.1116,15
26698,P2 Co2 Nb8,0.0,124
26699,O12 Tb7,0.014100000000000001,148
26700,S4 Zn1 In2,0.11450000000000049,156
26701,S6 Fe4 Ba2,0.0,63
26702,Br1 Rb1,3.9219999999999997,221
26703,In2 I10 Pb4,1.8602999999999996,140
26704,N3 Fe6,0.0,162
26705,H4 Ca2,0.6534999999999997,194
26706,H4 O18 S4 K2 Ti2,0.22050000000000036,11
26707,O12 V4 Cd4,0.3733000000000004,62
26708,O6 Ba3 W1,2.9798,225
26709,Li6 O20 V4 Ge4,0.0,64
26710,Rb8 O12,0.0,220
26711,Li12 Ti8 P12 O48,0.11770000000000014,14
26712,Sb4 P16 O48,0.0,14
26713,Li2 Nb4 P6 O24,0.0,9
26714,Li2 Ti2 P4 O14,0.16549999999999976,4
26715,O32 P8 Sn8,2.4403000000000006,33
26716,S4 Cr2 Ni1,0.0,12
26717,O8 Cu2 U2,0.0,14
26718,Mn10 As8,0.0,36
26719,C6 N12 Ba6,2.247,167
26720,Si2 Ru3 Ce1,0.0,191
26721,Be2 N12 O28,1.2844000000000002,43
26722,Ca3 Tl1,0.0,225
26723,O8 Co1 Re2,0.0,147
26724,Li6 O24 P6 Co6,2.9335,159
26725,O24 P8 Cr2,0.0,12
26726,Mn2 P8 O24,0.020500000000000018,2
26727,Li4 Mo8 P12 O48,0.6742999999999999,57
26728,Li1 O7 P2 Ni1,0.0026999999999999247,5
26729,O24 P6 Ni7,0.0,12
26730,O28 P8 Ni6,0.0,14
26731,Li4 O28 P8 Ni4,0.006099999999999994,14
26732,Li8 O16 V6,1.4558999999999997,11
26733,La4 Te8 U2,0.0,122
26734,F1 Nd1 O1,5.2617,216
26735,Pr4 Te8 U2,0.0,122
26736,Cu2 La4 O8,0.0,64
26737,F1 O1 Sm1,5.4397,216
26738,Fe8 Na20 O18,0.5540999999999996,8
26739,F1 O1 Y1,5.6328,216
26740,Rb8 Te4,1.3732,62
26741,Si2 Y1 Pt2,0.0,139
26742,Ba3 Cr6 La6 O27 Ti3,1.0070999999999994,65
26743,O10 S4 K4,3.1804,11
26744,Eu4 Ge2 Se8,0.0,11
26745,Ta16 O32,0.4284000000000008,88
26746,Cd4 S40 Tb24,2.0746,1
26747,Al24 Mg4 O40,3.0397999999999996,8
26748,Al24 O40 Zn3,0.0,8
26749,O60 Sc20 Zr15,3.9251,1
26750,Li4 Mo4 P8 O32,1.3646999999999998,14
26751,Li2 O14 P4 Mn2,1.6166,9
26752,O20 P4 V4,1.4709000000000003,15
26753,Cr4 P6 O24,0.0,2
26754,Cr8 O48 P12,0.0,60
26755,Li8 Fe2 P4 O18,0.0,12
26756,Co3 U6 O18,0.0,150
26757,Eu6 O8 Br2,0.007199999999999873,63
26758,U4 Mo8 O32,0.0,50
26759,O20 Ni4 Ba4 Yb8,0.6222999999999999,62
26760,Dy1 C2,0.0,139
26761,Na12 S8 Co2,0.42700000000000005,186
26762,S2 Co2 Tl1,0.0,139
26763,Sb1 S2 N1 Cl6,1.6653,71
26764,Au4 C4 S8 Cl12,1.9556999999999998,15
26765,Sr12 Mg12 F48,6.2299999999999995,11
26766,Lu6 O9,4.2763,12
26767,Al8 W12 O48,4.7523,14
26768,Si48 O96,5.6788,223
26769,Ti1 Zn1 Bi2 O6,1.6179999999999994,107
26770,In4 Si2 Cu4 S12,0.4558,9
26771,Cu8 B4 H20 O24,0.04090000000000016,62
26772,As4 C12 N12 F32,4.0149,15
26773,Zn2 In4 S8,0.13070000000000048,186
26774,Th2 Mo6 K4 O24,2.84,15
26775,Ca4 S4 O16,5.953899999999999,62
26776,Ti4 Mn4 O12,1.5326,62
26777,Ba4 Mn4 Bi4 O2,0.0,194
26778,Al8 W12 O48,4.5634,4
26779,Ba2 W2 O8,2.3111,36
26780,Na8 U2 Mo8 O32,0.006299999999999972,88
26781,P2 C4 N6 Cl8,3.7460000000000004,63
26782,Zn4 H64 C16 Br16 N8,4.0687,14
26783,Cs6 W4 Cl18,0.7297000000000002,194
26784,H32 C8 I12 N4,1.9774000000000003,56
26785,Rb8 Te4,1.3739000000000001,62
26786,La2 Al1 Ni9 H2,0.0,1
26787,Tb6 Se8,0.0,220
26788,Ti12 Sb4,0.0,140
26789,Sn2 H32 C8 Br12 N4,1.7128,58
26790,Cu48 Ge6 Se36,0.3182999999999998,185
26791,Cs6 Sr2 Cu4 C14 S14 N14,2.8882000000000003,121
26792,Cs8,0.0,64
26793,Zr12 W24 O96,3.1688,19
26794,Yb4 Na8 Mo4 P4 O32,0.0,73
26795,Ni16 P16 O60,0.0,15
26796,Mn4 H56 C12 N4 Cl12 O8,4.0385,62
26797,Li4 Fe6 P8 O28,3.841,14
26798,Rb2 U4 H10 C8 O30,2.1541,11
26799,H96 Ru4 C32 S16 Cl8,2.3670999999999998,61
26800,Rb4 Bi4 F16,2.8659,227
26801,O28 Ca4 Cu4 As8,0.019300000000000317,14
26802,La16 Co12 O36,0.5617999999999999,62
26803,H12 Cl4 O20,4.888,62
26804,H4 S2 O8,5.5461,9
26805,H4 W4 O14,2.0604,43
26806,Ba2 H8 O12,0.1985,1
26807,H12 N4 O16,3.7239,33
26808,V2 H1 O4,0.0,6
26809,La6 Mg22 Al1,0.0,225
26810,Pb2 W2 O8,2.9279999999999995,1
26811,Cu40 Si8 Sb16 O96,0.1849999999999996,54
26812,Co2 H12 N4 Cl4,0.23519999999999985,74
26813,Ba2 H4 C4 O10,3.1714,12
26814,Si16 Ni40 P24,0.0,61
26815,Sn2 P6 O18,0.0,188
26816,Li2 Cu8 P6 O24,0.0,2
26817,Y16 Se24,1.5547,122
26818,Ba10 Bi10 O26,0.0,1
26819,Ce22 Mn2 S32,0.0,18
26820,Al4 Cr2 S8,0.0,74
26821,Yb8 Bi8 O24,0.3517999999999999,1
26822,Nb1 Ag7 S6,0.2857000000000003,1
26823,Li20 Fe10 Cl40,0.01089999999999991,1
26824,Cs2 Ti2 Cu2 O2 F10,0.0,74
26825,Ca10 Cu2 Pb6,0.0,193
26826,H1 Cl1,5.1701,44
26827,Sc20 O19,0.0,1
26828,Ti1 Nb2 Zn1 Pb4 O12,0.3401999999999994,1
26829,Pr24 Mn4 S40,1.2101999999999995,1
26830,Li40 Nb38 O120,0.0,1
26831,V16 Ni4 O30,0.023900000000000254,15
26832,Cr7 Se8,0.0,12
26833,H30 C12 N6 O6,4.9699,161
26834,Li10 Mn21 O48,0.0,12
26835,Cr4 P16 O48,0.2695,60
26836,Li8 V4 P8 O32,1.4738,4
26837,Li12 Co10 P16 O56,2.3657000000000004,2
26838,Mn6 P8 O28,0.0,2
26839,H32 C8 Se4 S8 N16 Cl8,2.8516999999999997,14
26840,K8 P8 H16 O24,3.9123,14
26841,Cu4 H24 Se8 N4 Cl4 O24,0.12269999999999992,62
26842,Zn4 P8 H44 C8 N4 O32,4.4996,9
26843,Al2 H40 C4 S4 N2 O28,5.3862000000000005,7
26844,Al8 P12 H68 C16 N8 O48,5.226100000000001,15
26845,S4 Tb2,0.0,129
26846,V16 O32,0.7988,28
26847,Fe8 O12,1.4248000000000003,1
26848,P4 H20 N4 O16,5.6995000000000005,14
26849,H36 Pt4 N8 Cl4 O8,2.7884,14
26850,Ba4 Na4 Fe16 P24 H12 O100,0.2597999999999999,14
26851,Ni1 H12 Br2 O14,3.038,147
26852,Sr4 La8 O16,3.4421,62
26853,Ce2 Hf2 O8,1.7975999999999996,15
26854,Ba12 Cl8 O8,2.1949,62
26855,Sr5 Ir3 O11,0.0,8
26856,Sn12 O8 F8,0.0,62
26857,Li1 Ti2 P4 H3 O16,2.569,1
26858,Sb4 O4 F4,2.9532000000000003,14
26859,Ba2 Y2 Br10,3.6748000000000003,15
26860,Li12 Cu4 S8,2.2411,14
26861,Ce4 Th1 O8,0.0,1
26862,La3 Ti2 N3 O4,1.0174000000000003,119
26863,Tm4 H12 O12,4.1716,14
26864,Ba4 Sr2 I12,3.0347,15
26865,Nb4 N4 O4,1.6542,12
26866,Li20 Sb4 S4,0.5486999999999997,19
26867,Na4 Cd2 O6,0.0,12
26868,Sn2 O4,1.2960999999999996,141
26869,Cu2 Re2 O8,0.43679999999999986,2
26870,Ti3 O4,0.0,65
26871,Ba2 Na8 O6,1.5876000000000001,9
26872,Zr4 Bi4 O14,2.7929,227
26873,Li8 Hf2 O8,4.224,63
26874,K4 Sr4 O6,1.9508,14
26875,Gd4 Lu4 O12,3.1346,62
26876,Li20 Cu2 Si4 O20,0.3317000000000001,12
26877,Li12 Ti4 Si24 O60,0.14139999999999997,62
26878,Li9 Sn3 P6 O24,0.24860000000000015,143
26879,Li4 Ag2 F10,0.1600999999999999,11
26880,Li8 Cu4 P4 O16,1.4144000000000005,62
26881,Li4 Cu4 P4 O16,0.0,33
26882,Li4 Bi4 P8 O28,4.351100000000001,14
26883,Li2 Bi2 P8 O24,4.629,15
26884,Cs4 B40 H52 C4,4.8431999999999995,14
26885,Li24 Cu8 F48,0.4472999999999999,57
26886,Sb12 O8 F20,3.4665,62
26887,Li6 Ag6 F18,0.16959999999999997,4
26888,Ta2 Al2 O8,2.5858999999999996,109
26889,Li6 Sb4 P6 O24,3.3393,148
26890,Li3 La5 Ti6 Nb2 O26,1.8854999999999995,3
26891,Li4 Cr4 P4 O16,2.6114999999999995,33
26892,Li4 Mn3 Cr3 Ni2 O16,0.9221999999999997,8
26893,Sn2 W6 O18,0.0,11
26894,Ti7 Fe9 O24,1.4133000000000004,1
26895,F6 Rb3 Tl1,3.1498999999999997,139
26896,Mg4 Co14 O24,0.0,1
26897,Co6 Sb2 O16,0.0,9
26898,Li12 Mn12 P12 O48,3.6094000000000004,14
26899,Fe2 Co6 O16,0.0,186
26900,Li24 Mn8 P16 O64,1.1737000000000002,14
26901,Li32 Mn8 P16 O72,1.0964999999999998,61
26902,F6 Rb3 Y1,5.0547,139
26903,Bi16 O20 F8,2.5409999999999995,4
26904,Li6 Fe6 Si6 O24,3.005,173
26905,Li18 Mn18 P18 O72,3.3371000000000004,173
26906,Li4 V1 Fe1 Te2 O12,1.2719,1
26907,Li2 Fe2 C3 O9,3.1623,38
26908,Li4 Cr2 Ni2 P4 O16,1.7405,11
26909,Mn1 Fe3 Co2 P6 O24,0.0,146
26910,Li4 Ti3 Mn3 Te2 O16,0.24509999999999987,8
26911,Li2 Ni5 O10,0.6866999999999996,2
26912,Li15 Mn2 O12,0.0,1
26913,Li6 Mn12 O24,0.5052000000000003,1
26914,Li4 Ni5 Sb3 O16,0.0,1
26915,Li4 Fe7 P6 O24,3.0594000000000006,8
26916,Li16 Fe8 Si8 O32,2.7796999999999996,29
26917,Li4 Fe16 P12 O48,3.222,56
26918,Li8 Fe8 Si8 O32,2.8554000000000004,29
26919,Li10 Fe10 O24,0.04699999999999993,1
26920,Li3 Fe3 Si3 O12,2.8493,181
26921,Li4 Fe4 P8 O28,2.4451,14
26922,Li6 Mn3 Fe6 O18,0.9044000000000003,2
26923,Li6 V6 P16 O58,0.5884,1
26924,Fe8 O4 F12,1.3916,63
26925,Fe4 O2 F6,0.9197999999999997,31