Index,Composition,bandgap,spgN
20213,Li2 Ni4 P6 O20,3.6768,15
20214,C2 Rh1 Sm1,0.0,38
20215,Tm1 Bi1 Pd2,0.0,225
20216,Sm1 Th1,0.0,187
20217,Nd1 Th3,0.0,221
20218,Rb3 Na1,0.0,221
20219,Pr1 Ga1 Au2,0.0,225
20220,Pr2 Ir1 Au1,0.0,225
20221,Pm6 Yb2,0.0,194
20222,Ba2 Pd2 O5,0.0,123
20223,Ac6 Hg2,0.0,194
20224,Ac1 Dy3,0.0,139
20225,Sc2 Br2 O2,3.3514000000000004,129
20226,Cs2 Na1 Ga1 H6,1.0882,225
20227,Li8 Mn16 P16 O60,2.8834,15
20228,Li4 Fe8 P12 O48,0.0,1
20229,Rb1 Tl1 F3,0.0,1
20230,V4 O10,1.6227999999999998,55
20231,V4 Cu3 O12,0.0,204
20232,Ca1 Nd2 Ti2 Mn2 O12,1.3364000000000003,1
20233,Mg4 Ni8 O16,0.0,11
20234,Mg2 Mn4 S8,0.0,141
20235,Cu2 Sn1 Se4,0.0,121
20236,Ca4 Bi4 F20,4.2211,14
20237,Ca1 La2 Ti2 Mn2 O12,1.3115000000000006,1
20238,Bi6 P4 O20,0.019500000000000295,2
20239,Bi2 F8,0.9269000000000001,1
20240,Mg6 Ti4 O14,3.0446,36
20241,Mg12 Ge12 Mo8 O48,2.2511000000000005,230
20242,Mg4 Cr2 W2 O12,1.8806000000000003,14
20243,Ca4 Ag2 W2 O12,0.0,14
20244,Ca4 Cr4 As4 O20,1.2233999999999994,19
20245,Ba1 Y1 Cu1 Ni1 O5,0.23370000000000068,99
20246,Pr1 B12,0.0,225
20247,B2 As1 P1,1.0622999999999996,115
20248,Cd10 S8 Cl4,1.7228999999999999,2
20249,Mg7 Sb1,0.0,187
20250,Bi2 O3,1.1772,164
20251,Ba1 Ru1 O3,0.0,221
20252,Hf2 Sb4,0.0,129
20253,Ca2 Sn2 Hg2,0.0,194
20254,Y1 Mg6 Cd1,0.0,38
20255,Ca1 Mg6 Zr1,0.0,65
20256,Te2 Mo1 W1 Se2,0.30499999999999994,156
20257,Mg14 Ti1 Cd1,0.0,38
20258,Mg14 Cu1 Bi1,0.0,187
20259,Te2 Mo3 W1 Se2 S4,0.0,156
20260,Te2 Mo3 W1 Se2 S4,0.0,156
20261,Hf1 Mg14 Zr1,0.0,38
20262,Mg14 Zr1 Zn1,0.0,38
20263,Y1 Mg14 Zn1,0.0,187
20264,Li1 Mg14 Mn1,0.0,187
20265,Ce1 Y1 Mg14,0.0,38
20266,Li1 Mg14 Ni1,0.0,38
20267,Te2 W4 S6,0.0,156
20268,Te4 Mo2 W2 Se4,0.026100000000000012,164
20269,Te4 Mo1 W3 Se2 S2,0.0,156
20270,Te4 Mo1 W3 Se2 S2,0.0,156
20271,Te4 Mo1 W3 Se2 S2,0.0,156
20272,Te4 Mo1 W3 Se2 S2,0.0411999999999999,156
20273,Te4 Mo1 W3 Se2 S2,0.0,156
20274,Te4 Mo2 W2 Se4,0.12399999999999967,164
20275,Te4 Mo1 W3 Se2 S2,0.0,156
20276,Te4 Mo1 W3 Se2 S2,0.0,156
20277,Li2 Sn4 N6,0.8393999999999995,36
20278,Te4 Mo1 W3 Se2 S2,0.0,156
20279,Zn4 Ge4 N8,1.5234999999999999,14
20280,Te4 Mo1 W3 Se2 S2,0.0,156
20281,Te4 Mo1 W3 Se2 S2,0.0,156
20282,Te4 Mo1 W3 Se2 S2,0.0,156
20283,Te4 Mo2 W2 Se4,0.06979999999999986,156
20284,Mg6 Cd1 Ni1 O8,1.5616000000000003,123
20285,Mg6 Mn1 Cr1 O8,0.0,123
20286,Ca1 Mg6 Mn1 O8,1.2911000000000001,123
20287,Ca1 Mg6 Ni1 O8,2.6978999999999997,123
20288,Ca1 Mg6 Ni1 O8,2.9159000000000006,123
20289,Ca1 Mg14 Cd1 O16,3.0630999999999995,47
20290,Mg30 Ni1 Sn1 O32,1.5818000000000003,123
20291,Y1 Mg30 Cr1 O32,0.0,123
20292,Mg30 Cu1 Sn1 O32,0.16390000000000082,123
20293,K1 Y1 Mg30 O32,4.3245000000000005,123
20294,Ca1 Mg30 Nb1 O32,0.6560999999999995,123
20295,Sr1 Mg30 Al1 O32,0.4602000000000004,123
20296,Ce2 Mg10,0.0,8
20297,Ca6 Mg2,0.0,44
20298,Na1 Hf1 Mg30 O31,0.043699999999999406,25
20299,Sr1 Mg30 Ti1 O32,0.0,123
20300,Sr1 Mg30 Ti1 O32,0.3886000000000003,123
20301,Mg4 V8 P8 O32,1.9825,15
20302,Ca4 Cu8 Mo8 O32,1.3138999999999998,14
20303,Ca2 Sn4 O8,1.6598999999999995,74
20304,Ca4 Mo8 O16,1.9830999999999999,4
20305,Zn2 Bi4 O8,1.7048999999999999,1
20306,Mg4 Ti4 As8 O28,3.1114999999999995,14
20307,As8 W4 O28,3.0542999999999996,14
20308,Y2 Cr2 W4 O16,1.3317,13
20309,Mg3 Fe4 Mo6 O24,1.1707,2
20310,Zn4 Cu4 Ge8 O24,0.12290000000000001,14
20311,Fe4 Cu3 O12,0.0,204
20312,Mg2 Cr6 P8 O28,2.0229,14
20313,Mg4 Ti4 Bi4 O20,0.0,14
20314,Ca2 Ti2 Ag2 P6 O24,0.27980000000000005,161
20315,V4 Zn2 P4 O20,1.6636000000000002,43
20316,La2 Mg2 Mn2 Fe2 O12,1.4123999999999999,7
20317,Mg4 Ag4 Bi4 O20,0.5313999999999999,14
20318,Ca4 Bi12 O28,0.0,62
20319,Mg4 Bi4 Mo4 O20,1.5276999999999998,14
20320,Ca4 Bi4 Mo4 O20,1.6326999999999998,14
20321,Ca4 Ta4 Fe2 O16,3.4090000000000003,2
20322,Sr2 Mn2 P4 O16,0.32399999999999984,2
20323,Sr4 Y2 Al2 Cr4 O14,1.3326000000000002,46
20324,Zn2 Ag4 O8,0.4767,141
20325,Y1 Fe1 W2 O8,2.4675000000000002,1
20326,Mg6 Cu12 O24,0.0,156
20327,Pb2,0.0,166
20328,Hg3 Te3,0.27890000000000015,154
20329,La7 Sm1 Co5 Cu3 O24,0.0,8
20330,Sr5 Ca3 Mn7 Fe1 O24,0.0,8
20331,Sr12 Ca20 Mn16 Fe16 O80,0.0,1
20332,Sr3 Ca5 Ti3 Mn5 O24,0.0,1
20333,Sr6 Ca2 Co6 Cu2 O24,0.0,28
20334,Yb2 Cu2 Pb2,0.0,194
20335,Sr4 Ca4 Ti2 Mn6 O24,0.0,6
20336,Ca1 Ni5 H1,0.0,8
20337,Sr2 Cu1 Mo1 O6,0.0,87
20338,Ba1 Gd1 Co2 O5,0.0,47
20339,Ga1 Si3 C3 N1,2.6052,6
20340,Na8,0.0,62
20341,Sr2 Y1 Co1 O6,0.061100000000000154,139
20342,Nb4 Fe2 B4,0.0,127
20343,C2 Rb2 Pd1,1.5802,164
20344,La8 Mg4,0.0,63
20345,Mg4 Sn8,0.0,8
20346,Mg2 Sn10,0.0,38
20347,Sr5 Mg1,0.0,189
20348,Sr6 Mg2,0.0,44
20349,Mg3 Ga3,0.0,166
20350,Mg12 Ga6,0.0,155
20351,Mg8 Ga4,0.0,8
20352,Mg10 Bi2,0.0,38
20353,Mg2 Al2,0.0,51
20354,Mg1 Sn3,0.0,25
20355,Mg30 Cd1 Sn1 O32,1.6192000000000002,123
20356,Ca32 Ti32 O80,0.0,14
20357,Cr9 N6,0.0,12
20358,Li1 Fe3 O4,0.0,8
20359,Ba6 Sr2 Cu8 O24,0.0,123
20360,Ba4 Sr4 Co2 Cu6 O24,0.0,6
20361,Li9 Mn2 Co5 O16,0.6061000000000001,10
20362,Zn2 O2,0.9577000000000001,186
20363,V4 F18,0.06489999999999974,143
20364,V4 Si2 O8,0.6589999999999998,74
20365,V3 Co1 Sb2 P6 O24,0.05040000000000022,146
20366,Ti1 V3 Cr2 P6 O24,0.0,146
20367,Sr2 Ca4 I12,3.5702,15
20368,Sc2 Ti2 O6,0.0,148
20369,Ni6 O2 F10,0.6057999999999999,12
20370,Ti8 Pb8 O23,0.0,6
20371,Li4 Sn4 P16 O48,0.0,4
20372,Sb5 P6 O24,0.33820000000000006,1
20373,Co4 P12 O36,0.2541,2
20374,Li2 Ni2 P4 O14,0.07910000000000017,2
20375,Fe2 Si2 Bi1 O9,0.0,8
20376,Sr3 Sc2 Fe2 As2 O5,0.0,139
20377,Mg1 Ni6 Ge6,0.0,191
20378,Dy4 Fe3 B6,0.0,166
20379,Mn6 Re2 O12,0.0,14
20380,Ga4 Ag4 O8,0.2972999999999999,33
20381,Rb2 Y1 Cu1 F6,0.9224999999999999,225
20382,Rb3 Nd1 Cl6,4.541,225
20383,K3 Sb1 F6,3.8451,225
20384,K2 Li1 Pr1 Cl6,4.8264,225
20385,K3 Sb1 Cl6,3.3444000000000003,225
20386,K2 Li1 Pr1 Br6,3.9531,225
20387,K2 Nd1 Ag1 Cl6,3.3232,225
20388,K3 Bi1 Br6,3.4347,225
20389,K2 Li1 Nd1 I6,2.9488000000000003,225
20390,Cs2 Li1 Sb1 F6,4.1258,225
20391,Na2 Li1 As1 F6,4.3114,225
20392,K3 Gd1 Cl6,3.0972,225
20393,K2 Li1 Tl1 Br6,0.5592999999999999,225
20394,K2 Tl1 Ir1 F6,2.0094000000000003,225
20395,K2 Rb1 Tl1 F6,3.6132,225
20396,Rb2 Sc1 Au1 Cl6,1.9087,225
20397,K2 Tl1 Hg1 Br6,0.0,225
20398,K2 As1 Au1 Br6,0.0,225
20399,Cs2 Tl1 Ga1 Br6,1.5442,225
20400,Cs2 Y1 Hg1 Cl6,0.0,225
20401,Cs2 Bi1 Au1 Br6,0.28269999999999995,225
20402,Cs2 In1 Ga1 F6,3.3137999999999996,225
20403,Cs2 Sb1 Au1 Br6,0.0,225
20404,Rb2 In1 As1 Cl6,0.6066000000000003,225
20405,Rb2 Al1 In1 Br6,1.8984,225
20406,Mg2 V2 P2 O10,1.4879999999999995,1
20407,O1 Pr1,0.0,225
20408,Ba2 Cu1 Se1 O2,0.0,123
20409,K2 Cu1 H4,0.0,139
20410,N8 Hf6,1.0251000000000001,220
20411,Sr4 La4 Cr1 Ni3 O15,0.0,2
20412,Nd2 Th3 O9,2.8401,119
20413,Nb4 Ni2 O12,1.5425999999999997,12
20414,Nd2 Nb6 O18,2.0923,2
20415,Na7 La7 Th2 Ti18 O54,1.931,42
20416,Li4 Mn2 Co2 O8,0.0,12
20417,Li2 Mn1 Co1 O4,0.005700000000000038,12
20418,Li3 Mn1 Co2 O6,0.0,12
20419,Li5 Co3 O8,0.3363999999999998,2
20420,Li5 Co3 O8,0.2812000000000001,2
20421,Li5 Co3 O8,0.29059999999999997,2
20422,Li8 Co6 O14,0.4104000000000001,1
20423,Li7 Mn2 Co3 O12,0.6949999999999998,12
20424,Li7 Mn2 Co3 O12,0.8043,2
20425,Li7 Mn2 Co3 O12,0.5569000000000002,2
20426,Li7 Mn2 Co3 O12,0.6955,1
20427,Li7 Mn2 Co3 O12,0.6616,2
20428,Li8 Mn2 Co4 O14,0.9272999999999998,1
20429,Li7 Mn2 Co3 O12,0.5836000000000001,2
20430,Li8 Mn2 Co4 O14,0.5847000000000002,1
20431,Li6 Mn3 Co1 O10,0.40980000000000016,1
20432,Li6 Mn3 Co1 O10,0.27249999999999996,1
20433,Li7 Mn2 Co3 O12,0.8933999999999997,1
20434,Li7 Mn2 Co3 O12,0.6797,2
20435,Li7 Mn2 Co3 O12,0.6325999999999996,1
20436,Li7 Mn2 Co3 O12,1.0018000000000002,1
20437,Li7 Mn2 Co3 O12,0.9374000000000002,1
20438,Li7 Mn2 Co3 O12,0.8700000000000001,1
20439,Li7 Mn2 Co3 O12,0.9247000000000001,1
20440,Li7 Mn2 Co3 O12,0.9403000000000001,1
20441,Li7 Mn2 Co3 O12,0.9291,1
20442,Li7 Mn2 Co3 O12,0.8653999999999997,3
20443,Li7 Mn4 Co1 O12,0.6130999999999998,6
20444,Li9 Co7 O16,0.5825,12
20445,Li9 Co7 O16,0.0,10
20446,Li9 Mn2 Co5 O16,0.5383999999999998,2
20447,Li9 Co7 O16,0.6409000000000002,2
20448,Li9 Co7 O16,0.6200000000000001,2
20449,Li9 Mn2 Co5 O16,0.46030000000000015,2
20450,Li9 Co7 O16,0.0,2
20451,Li9 Co7 O16,0.5888999999999998,1
20452,Li9 Mn2 Co5 O16,0.6479000000000004,1
20453,Li9 Mn2 Co5 O16,0.6534,1
20454,Mn1 W1 O4,0.3296999999999999,119
20455,Na4 Bi2 B2 As2 O14,0.16440000000000002,11
20456,Mn1 V3 Cr2 P6 O24,0.0,146
20457,Mn5 V1 O12,1.0717999999999999,12
20458,Mn3 Fe2 Co3 O16,0.0,1
20459,Li2 V6 O2 F22,0.0,1
20460,Li2 Mn2 P2 O8,3.4318000000000004,5
20461,Li4 Fe4 P4 C4 O28,0.0,1
20462,Li2 Fe8 B8 O24,1.6538999999999997,1
20463,Li2 Fe8 B8 O24,1.6320000000000001,1
20464,Li9 Cr12 Fe7 O48,0.7908,1
20465,Li8 Fe7 O15,0.0,12
20466,Li6 Nb1 V3 P6 O24,0.14749999999999996,1
20467,Li6 Fe3 Co3 O16,0.0,1
20468,Li4 V3 Cu3 W2 O16,0.0,1
20469,Li4 Fe3 Ni3 O12,0.0,2
20470,Li4 Fe2 Cu3 Sn3 O16,0.0,1
20471,Li4 Cr3 Cu1 P4 O16,0.0,6
20472,Li3 V5 O12,0.7819999999999996,1
20473,Li12 Mn4 V4 P12 O48,0.23969999999999958,1
20474,Li12 Mn4 V4 P12 O48,0.09600000000000009,1
20475,Li3 Fe8 B8 O24,1.2639000000000002,1
20476,Li3 Fe8 B8 O24,1.4629,1
20477,Li3 Mn3 Cr1 O8,0.04449999999999976,2
20478,Li6 Co4 Si6 O20,0.0,1
20479,Li6 Co4 Si4 O16,0.0694999999999999,4
20480,Li9 Cu6 Ni15 O36,0.12440000000000007,1
20481,Li4 V2 Cu2 P4 O16,0.0,6
20482,Li4 Mn4 P4 H24 O30,1.2368999999999999,15
20483,Li8 Fe12 Cu4 O32,0.0,1
20484,Li4 Cr2 Cu2 P4 O16,0.0484,11
20485,Li12 Cr3 Co1 P4 C4 O28,1.4402999999999997,6
20486,Li19 V8 B16 O48,0.5451000000000001,1
20487,Fe12 O12 F12,0.22239999999999993,6
20488,Fe10 O11 F9,0.0,1
20489,Ba2 La2 Cl10,4.1376,15
20490,Zn2 Fe2 O4 F10,1.6832,74
20491,Sm2 H24 N6 O30,2.7367,2
20492,Na1 Co1 Cu3 Se4,0.0,215
20493,Na1 V1 Cu3 Se4,0.0,215
20494,H12 C4 O12,3.5745,14
20495,Hg16 N12 O40,0.0,41
20496,Ba8 Cu1 Si16,0.0,1
20497,Ba2 Yb1 Bi1 O6,0.0,2
20498,Ac6 Tb2,0.0,194
20499,Al2 Rh6,0.0,194
20500,Ca3 Cd1,0.0,221
20501,Cd6 Pb2,0.0,194
20502,Ce2 Tl1 Ag1,0.0,225
20503,Cd2 Sn6,0.0,194
20504,Ag1 Ce1,0.0,123
20505,Ga2 Sn6,0.0,194
20506,Eu5 Mg1,0.0,189
20507,Eu5 Mg1,0.0,38
20508,Li1 Lu2 Au1,0.0,225
20509,Mg16 Al12 Cr1,0.0,160
20510,Na1 Ag3,0.0,221
20511,Pm3 Ag1,0.0,139
20512,Pm3 Th1,0.0,139
20513,Pu1 Ti1 O3,0.0,221
20514,Rb6 Na2,0.0,194
20515,Sr6 Li2,0.0,194
20516,Sr1 Eu3,0.0,221
20517,Tl2 Sn6,0.0,194
20518,Yb2 Zn6,0.0,194
20519,Rb4 V2 O4 F8,0.8520000000000001,63
20520,Mn3 Ga4 Ni9,0.0,123
20521,Sr4 Co4 O12,0.0,11
20522,V10 As6 C2,0.0,193
20523,Sm2 Fe17 N3,0.0,166
20524,U1 Cu4 Mo2 O16,0.0,12
20525,Er6 Ga2 Co2 S14,0.0,173
20526,Sm4 C4 O16,0.0,62
20527,Ba8 Fe4 Se12,0.0,62
20528,Li4 Ru8 O16,0.0,62
20529,Mn3 Co20 B6,0.0,225
20530,Ca4 Al2 P4 O18,0.0,11
20531,Ni12 W12 C4,0.0,227
20532,Mo8 H24 N4 O30,3.2088,2
20533,Tm6 Ge26 Pt8,0.0,9
20534,Mg63 Si32 Bi1,0.12399999999999967,215
20535,Ca2 Fe4 Cu6 Sb4 O24,0.5545,201
20536,Na8 Fe8 P8 O32 F4,0.6977,60
20537,V4 P4 H44 O36,2.524,76
20538,Zn48 As32,0.0,142
20539,Cs4 Se12 O36,0.25680000000000014,14
20540,Gd8 Fe56 C4,0.0,136
20541,H16 S16 N4,0.42469999999999997,12
20542,K8 Ce4 S12 O52,0.3854,5
20543,P12 C4 N8 Cl52,0.2338,4
20544,Mg20 Si24 O72,0.1260000000000001,60
20545,Mg16 Al4 Si12,0.0,130
20546,Eu6 Mg30,0.0,194
20547,P8 H104 Au8 C32 Se8 N16 Cl8,3.1196,114
20548,Na16 Pr8 N40 O128,0.5521,13
20549,Zn4 H48 C16 N20 Cl12,4.3281,14
20550,Mg8 P8 H112 C4 Cl8 O80,3.8838999999999997,11
20551,Ca2 Fe10 P10 O44,0.6850999999999998,2
20552,Na8 Sn4 Ge10 O34,0.033500000000000085,13
20553,K4 U4 Se8 O32,0.0364,14
20554,Fe2 B4 P4 H6 O24,2.7279,15
20555,Ba2 H12 C8 O20,3.2399999999999998,15
20556,Li4 P4 H12 N4 O12,4.4692,2
20557,K4 H4 C8 O16,3.1669,14
20558,Sr36 Al24,0.04930000000000012,198
20559,H96 C32 Se24 Br48 N8,1.1803,14
20560,U2 H20 C8 S2 N6 O18,1.5966,2
20561,K4 U4 V4 I4 O40,0.3978999999999999,32
20562,Hf3 As3 Pd3,0.0,189
20563,Pr2 Ge6 Pt1,0.0,38
20564,Cs2 Sm2 I6,0.0,63
20565,Li1 V1 Se2,0.0,164
20566,Zr4 Ge4 As4,0.0,62
20567,Zn14 P20,1.4943000000000004,43
20568,Zn4 P8 H52 C8 N24 O32,0.28400000000000003,33
20569,Tl4 C4 S4 N4,2.3338,57
20570,Tb4 Al10 Ge4,0.0,64
20571,Tb6 Ni22 Ge8,0.0,194
20572,Sr1 Be1 Ge1,0.0,187
20573,Re12 S16 Br12,0.0,2
20574,Pr6 Co16 Sn8,0.0,186
20575,Nd3 Co6 Sn5,0.0,71
20576,Nb3 Pb2 O8 F4,0.0,139
20577,Na3 Gd1 V2 O8,3.4345,164
20578,Na10 Sr4 B20 C4 O52,0.0,15
20579,Li2 Zn1 Pb1,0.0,216
20580,Li12 W7 O28,0.0,215
20581,Mn16 Al54 Zn6,0.0,63
20582,K3 Dy1 F6,5.7745,225
20583,Ga2 Cu2 W4 O16,0.9512,15
20584,Eu4 Mo4 O20,0.0,14
20585,Cu8 Re12 Se24,0.18399999999999972,15
20586,Cr2 Cu2 W4 O16,0.4440999999999997,15
20587,Ce2 Mn4 Cu18,0.0,127
20588,Ca2 Al4 F16,7.2199,15
20589,Ba1 Yb1 Fe4 O7,0.0,216
20590,Ba8 Rh2,0.0,227
20591,Ce3 Ti6 Fe23,0.0,12
20592,Ba4 H4 C8 O18,3.3707,2
20593,Zr1 Mn6 Ga2 Sn4,0.0,191
20594,Yb1 Zn1 Cu1 As2,0.0,156
20595,Zr4 Si2 Mo6,0.0,194
20596,Zn1 Pd4,0.0,166
20597,Zr2 Ni1 Se4,0.0,12
20598,Zr3 Co1 Se6,0.0,148
20599,Zn2 Tc2 Ni2 O8,0.2767999999999997,8
20600,Y4 Ti2 Nb2 O15,2.4471999999999996,44
20601,Y2 Zr1 W1 O8,3.3158,82
20602,V3 Si3 Ge3,0.0,153
20603,V1 Pd4,0.0,166
20604,Y2 Ti2 Fe22 N1,0.0,8
20605,V12 Ga14,0.0,42
20606,U1 Pt2 Au3,0.0,44
20607,U2 Cu1 Si3,0.0,44
20608,U2 Si2 Au2,0.0,12
20609,U1 Co10 Si2,0.0,69
20610,Ti1 Cu1 S2,0.0,160
20611,Ti1 Cu3 O4,0.0,10
20612,Ti4 Cr8 P12,0.0,6
20613,Ti4 Al4 Fe4,0.0,6
20614,Th1 Mn2 Ni3,0.0,191
20615,Th1 U1 Al6,0.0,187
20616,Th1 Zr3,0.0,123
20617,Th4 U8 S20,0.0,33
20618,Tb1 Ga3 Ni1,0.0,119
20619,Tb1 Al1 Co4,0.0,65
20620,Tb1 Ag1 Sn1,0.0,187
20621,Sr2 Sm2 Co2 O8,0.0,63
20622,Ta1 O2 F1,1.5026,123
20623,Ta4 Cr4 Ni4,0.0,38
20624,Sr4 Ca1 Pr2 Cu4 Hg1 O14,0.0,119
20625,Sr2 Y1 Cu2 Bi1 Pb1 O8,0.0,107
20626,Sr4 Y2 Fe6 O15,0.0,69
20627,Sr10 Cu5 Mo4 W1 O30,0.0,12
20628,Sn3 Pb1,0.0,47
20629,Sm2 Fe20 Si2 C1,0.0,2
20630,Sb4 As4 Ir4,0.5878999999999994,14
20631,Pr1 Th1 C1 N1,0.0,160
20632,Pr1 Sm1 Fe4,0.0,216
20633,Rb2 Mo18 S18,0.0,176
20634,Pr2 In3 Ni1,0.0,25
20635,Ni1 Rh1,0.0,166
20636,Ni1 Mo6 Se8,0.07029999999999959,1
20637,Nd1 Ga3 Ni1,0.0,119
20638,Nb1 V1 Re1,0.0,42
20639,Nb4 Cr4 Ga4,0.0,38
20640,Nb12 Zn4 Au4,0.0,198
20641,Mn1 Fe1 Si4,0.0,123
20642,Mg1 Zn1 O2,2.4109000000000003,166
20643,Mn4 Ni2 Bi6 O18,0.0,15
20644,Mg4 Ti4 B4 O16,0.0,26
20645,Mn8 H4 C16 O34,2.2347,30
20646,Li1 Sm1 S2,0.24120000000000008,123
20647,Li1 Zn1 Fe1 O3,1.7523,44
20648,Li1 Eu1 W2 O8,0.0,82
20649,Li1 In1 Mo6 Se6,0.7491999999999996,174
20650,Lu4 Ge8 Ru1,0.0,25
20651,Li4 Mg2 Br8,3.4671000000000003,74
20652,Li1 Ti2 S4,0.0,2
20653,La12 Si6 Ni4,0.0,6
20654,In1 Ni22 B6,0.0,225
20655,Hf1 Ta2 V1 C4,0.0,160
20656,K2 Mo18 S18,0.0,176
20657,Na4 V10 Co1 H44 O52,0.04300000000000004,2
20658,Ga1 Fe3 As1,0.0,187
20659,Fe2 P2 H10 N2 O8 F2,3.5810999999999997,7
20660,Ga4 Mo12 S24,0.9962,44
20661,Fe1 Mo2 H7 O11,2.5547,1
20662,Fe3 Cu1,0.0,65
20663,Fe4 Si2,0.0,123
20664,Dy1 V2 Co10,0.0,71
20665,Fe3 P6 H18 N3 O24,2.0627999999999997,2
20666,Cu1 Au1,0.0,166
20667,Dy6 Ga19 Pt3,0.0,8
20668,Mn4 H120 C24 Se20 N24,0.8150000000000001,52
20669,Cr1 Fe3 Sb4,0.0,164
20670,Cs2 K1 Ti1 O2 F3,3.8369,42
20671,Cr2 Co1 Se3 S1,0.0,8
20672,Cr2 Fe2 Ge4,0.0,4
20673,Ce1 Zr2 O6,1.7288999999999994,164
20674,Ca6 Sc1 Co3 O12,0.5871,155
20675,Ce2 Fe1 Sn4,0.0,38
20676,Ca6 Al3 Si8 N18,0.12330000000000041,1
20677,Fe74 W13,0.0,42
20678,Ba1 Sr1 La1 Bi1 O6,2.1134999999999997,216
20679,Ba1 Sr3 Pd2 O4 F4,0.0,99
20680,Ba2 Nd2 Mn2 Co2 O12,0.0,35
20681,Ce10 Ni3 Sn3,0.0,42
20682,Ba1 Na2 Sr6 Al6 O2 F32,0.8071000000000002,8
20683,Ba4 Co1 Ni3 S8,0.0,38
20684,Ba6 Cu3 Hg3 O13,0.0,12
20685,Ba2 La1 Cu3 O7,0.0,99
20686,Ba6 Nd2 V6 O24,3.2479,8
20687,Al3 Ni1 Mo12,0.0,47
20688,Ba8 Nb4 H52 C32 O92,3.1997,33
20689,Li6 Mn3 Co1 O10,0.10020000000000007,8
20690,O3 Ho2,4.2394,164
20691,F4 Nb1,0.0,139
20692,O20 Sc8 Cu8,0.0,33
20693,Cr3 As3 Rh3,0.0,189
20694,O24 Te8 Pu4,0.005499999999999616,14
20695,Cr8,0.0,223
20696,F20 U4,0.0,122
20697,O12 Ca1 Cu3 Sn4,0.5281000000000002,204
20698,V4 S4,0.0,62
20699,O12 Ca2 Sr4 W2,3.2729,59
20700,O8 V4 Cd2,0.0,227
20701,N6 O12 Na3 Co1,2.4684,148
20702,O4 Cu1 La2,0.0,139
20703,Mn4 Ge4 Er4,0.019199999999999662,62
20704,Rb2 Mn2 As2,0.0,129
20705,Si2 Rh2 Np1,0.0,139
20706,O10 Cu4 Nd4,0.0,55
20707,Ge2 Nd1 Pt2,0.0,139
20708,Si2 Gd1 Pt2,0.0027999999999996916,139
20709,Sr8 Al8 B8 O32,4.297899999999999,56
20710,C1 Fe3 Sn1,0.0,221
20711,Si2 Fe2 Nb8,0.01890000000000036,124
20712,K1 I1,3.24,221
20713,H12 C2 N6 S2 Ni1,1.4359,12
20714,N6 O12 Na3 Co1,2.531,166
20715,N6 O12 Co1 Rb2 Pb1,0.0,202
20716,N6 O12 K2 Ni1 Pb1,1.7504,202
20717,Li2 C2 O14 P2 Cu2,0.0,4
20718,O12 Mn4 Ni2,1.0147,64
20719,Ti3 Hg1,0.0,221
20720,O12 Si4 V2,1.4068,15
20721,Li6 C2 O14 P2 V2,2.8329999999999997,11
20722,Li6 O20 Si4 V4,0.0,64
20723,O24 P6 Bi4,0.0048000000000000265,148
20724,O2 Cl1 Pb2,0.0,139
20725,O24 P16 Se8,3.1407,14
20726,Li2 O24 P6 Fe4,0.0,15
20727,H4 O2,5.275399999999999,102
20728,Sm4 O2,0.0,141
20729,Sc4 H10,0.0,59
20730,Nd4 Te8 U2,0.0,122
20731,Eu2 Lu4 S8,0.4383999999999997,122
20732,Sm2 Dy4 S8,0.0,122
20733,P6 Cu18,0.0,165
20734,Cu1 Nd5 Se8,0.9416000000000002,82
20735,Ce4 O14 Y4,1.6482,51
20736,O8 Si2 U2,0.0,141
20737,B2 Gd1,0.0,191
20738,O60 P20 Mo4,0.1249,14
20739,O48 P12 Mn12,0.053099999999999925,14
20740,Cs2 Pd1 C2,1.7513999999999998,164
20741,Zr6 Bi20 Br36,0.0,173
20742,Al20 Cu10 O40,0.030400000000000205,8
20743,Fe4 O28 P8,0.017199999999999993,15
20744,Fe4 P8 O28,0.0,14
20745,Li2 O16 P4 V2,1.2990999999999997,15
20746,Li6 Cr2 P4 O18,0.007000000000000006,1
20747,H1 Mg16 O32 Si8,0.0,1
20748,P2 H18 C2 N8 O8,5.0103,2
20749,Li4 H12 C4 O12,5.2442,33
20750,Na4 Bi10 Au2 O22,0.8920000000000003,127
20751,Ta1 Bi4 Cl1 O8,1.0065999999999997,123
20752,Zn4 In4 S10,0.0,186
20753,P8 W8 O40,0.0,62
20754,Li1 In1 Sn1,0.0,216
20755,Mo30 Se38,0.0,167
20756,Nb4 N3,0.0,139
20757,Hg4 H40 C12 Br12 N4,2.6161,14
20758,Na2 Si4 Cu5 O14,0.14040000000000008,2
20759,Ta10 Pd30,0.0,194
20760,Li4 Co4 P8 O28,1.7232999999999998,1
20761,Sb8 S24 N16 Cl56,1.818,14
20762,H16 Pb4 C8 O24,3.0104,62
20763,Bi4 H96 C24 I24 N12,2.7822999999999998,148
20764,Cs4 Cr4 Cl4 O12,2.8242000000000003,62
20765,H16 Pt2 O12,1.6046999999999998,9
20766,H16 Pt2 O12,1.5662000000000003,1
20767,Mo2 H8 O10,2.2858,1
20768,Al8 H24 O24,4.0103,7
20769,Al8 H24 O24,3.8282000000000003,1
20770,Al8 H24 O24,4.246,1
20771,Li4 V8 O20,0.29259999999999975,62
20772,Zn3 In2 S6,0.0,156
20773,Mo18 Se22,0.0,176
20774,Na2 Sn1 H6 O6,3.2561999999999998,148
20775,Sc1 O1,0.0,225
20776,K4 U8 F36,0.2237,62
20777,Yb6 Fe23,0.0,225
20778,U2 W8 C8,0.0,83
20779,Ta1 Al1 O4,1.8382000000000005,65
20780,K1 Bi2 F7,4.6755,1
20781,Ce5 Cu1 Se8,0.0,82
20782,Cu2 Mo12 S16,0.0,1
20783,Cu11 Sb4 S13,0.0,8
20784,Nd4 Th4 O14,2.6771,51
20785,Na21 In5 O15,0.04180000000000006,8
20786,La16 Cu14 O38,0.0,1
20787,Sb2 P8 O24,0.0,12
20788,Na11 Ti20 O40,0.0,8
20789,Ba25 Bi15 O54,0.0,8
20790,Ga24 Cu12 O48,0.0,8
20791,Er18 Ti14 O55,2.3688000000000002,8
20792,Li3 V4 O8,0.0,166
20793,H16 C2 S2 N8 O8,5.1351,2
20794,Sc2 Sn2 Au2,0.0,186
20795,Sr2 La14 Zn3 Cu5 O32,0.0,1
20796,P2 Ca1 Mn2,0.0,164
20797,Eu1 Ni6 S8,0.0,1
20798,La7 Ti27 Al5 Cu24 O96,0.0,1
20799,Ca10 V5 Fe15 Bi2 O48,1.0886,2
20800,Rb4 Cu2 H8 C8 O20,0.5337000000000001,2
20801,Sr5 La3 Mn8 O20 F4,0.0,1
20802,Mn4 P12 O36,0.7476000000000002,2
20803,K8 Cr8 O28,2.5108,12
20804,V4 P12 O36,1.9532999999999998,2
20805,Li4 Ni4 P8 O28,0.29269999999999996,14
20806,Li10 Mn23 O48,0.0,8
20807,H16 Pt2 N4 Cl4 O4,2.4202,11
20808,Nd2 H64 C16 N8 Cl14,4.7293,18
20809,V4 H16 N4 O12,3.2319,57
20810,V4 P4 H20 N4 O24,2.3592,29
20811,Li4 Cu1 P2 O8,0.681,2
20812,Ho2 I2 O2,2.2234,166
20813,Sb6 O5 F8,3.3506,1
20814,Li2 Cu2 F8,0.0,36
20815,Li2 Ti2 Si2 O8,0.0,63
20816,Sr1 Bi5 O9,0.0,1
20817,Ba5 In5 O12,0.0,2
20818,Sr1 La2 Cl8,3.7179,12
20819,Ba2 Ca2 I8,2.8307,15
20820,Li12 Cu4 S8,1.9031000000000002,141
20821,Cu12 O6 F12,0.0,15
20822,U4 Bi1 O10,0.0,87
20823,Dy2 Bi7 O14,0.0,8
20824,La4 Ti4 N4 O8,0.5628999999999991,1
20825,Li1 Lu1 O2,4.7738,166
20826,W3 N6,1.0066,152
20827,Li3 Ti6 O13,0.0,12
20828,K1 V1 O2,1.4364,12
20829,Ga4 Si1 O8,2.4052999999999995,12
20830,Cu2 Sb2 P4 O16,0.0,11
20831,Li4 Cu4 Te4 O16,0.0,95
20832,Li2 Cu1 Sn1 O4,0.23280000000000012,10
20833,Li1 Mg1 Sn1 Au1,0.0,216
20834,Ba2 La4 Br16,3.1249000000000002,82
20835,Li1 Ni2 S2,0.0,164
20836,Dy4 Te2 O12,2.5307,136
20837,Na10 Gd2 O8,2.0718,31
20838,Gd4 Tm4 O12,3.1590000000000003,62
20839,Ba2 Sr2 I8,3.6125999999999996,36
20840,Cd4 Ga8 O16,1.2302,62
20841,Li2 Te2 H2 O8,1.6134,6