Index,Composition,bandgap,spgN
1395,Rb1 La1 Mg30 O32,2.3526999999999996,123
1396,Li1 Mg30 C1 O32,0.49350000000000005,123
1397,K1 Mg30 B1 O32,4.2959,123
1398,K1 Rb1 Mg30 O31,2.6818,25
1399,Cs1 Mg30 Ti1 O32,0.0,123
1400,La1 Ta1 Cr1 O6,0.18080000000000007,1
1401,Ti8 Zn4 Cu8 O32,0.3166,14
1402,Mg2 Bi6 P6 O26,2.8387000000000002,11
1403,Ca2 Ho2 W4 O12,2.04,7
1404,La2 W1 O6,3.5578999999999996,148
1405,Zn4 Co8 Cu8 O32,0.0,14
1406,Ca6 V6 As8 O32,0.8916,14
1407,Sb4 O8,0.8367000000000004,74
1408,Zn2 Ag4 O8,0.0,74
1409,Ca4 Sn8 O16,2.0496,59
1410,V4 Zn2 O8,1.0650999999999997,74
1411,Co8 Si16 O48,0.8842000000000001,61
1412,Zn8 Ag8 Bi8 O40,0.0,61
1413,Mg4 Sn4 As8 O28,2.0044,14
1414,Ca8 Co24 O56,0.24750000000000005,14
1415,Ca8 Co8 Mo16 O56,1.1849999999999996,14
1416,Ti4 Zn1 Cu3 O12,0.0,204
1417,Cr8 Bi8 O40,0.03400000000000003,61
1418,Zn8 Cr8 Bi8 O40,0.7590000000000003,61
1419,Mg4 As8 W4 O28,2.7749,14
1420,Mn4 As8 O28,0.5503,14
1421,Zn1 Cu3 Mo4 O12,0.14639999999999986,204
1422,Mg2 Ti4 P4 O20,2.4653,43
1423,Mg4 Ni4 Bi4 P8 O36,0.0,2
1424,Y2 Te2 W4 O16,1.3395000000000001,2
1425,Mg4 Bi12 O28,0.0,62
1426,Mn4 Zn2 P4 O20,0.0,43
1427,Zn2 Mo4 P4 O20,0.0,43
1428,Zn2 Co4 P4 O20,0.0,43
1429,Ca1 Mo4 O8,0.0,166
1430,Mg4 Bi4 W4 O20,1.6053000000000002,14
1431,Ba1 Ca1 V4 O8,0.9838,162
1432,Zn2 Ag4 O8,0.0,160
1433,Ca2 Ti4 O8,0.0,160
1434,Pr2 Zn2 Cr4 O12,0.5162,7
1435,Y4 Co12 O24,0.6261999999999999,2
1436,Mg2 Fe4 O8,0.9243000000000001,12
1437,Mg2 Ti2 P8 O24,0.20530000000000026,1
1438,Ba4 Zn2 Cu2 Sn4 F28,0.0,1
1439,Mg2 V9 O13,0.0,12
1440,Nb4 Zn4 Sb2 O16,0.0,1
1441,Ca8 Cu10 Te6 O36,0.011099999999999888,5
1442,Zn8 Cr10 Te6 O36,0.16110000000000024,15
1443,Mg4 Nb4 Te2 O16,1.1145,1
1444,Zn4 Sb4 As4 O20,2.4172000000000002,19
1445,Ba1 Ca1 Bi4 O8,0.9921999999999995,162
1446,Ca2 Ag4 O8,0.7873,141
1447,Mg2 Bi1 W1 O6,2.2512999999999996,1
1448,Mg2 Sn1 W1 O6,2.2891999999999997,1
1449,Y1 V1 W2 O8,1.2892000000000006,1
1450,Ca2 Bi1 W1 O6,0.5419999999999998,1
1451,Ti4 Zn2 O8,0.0,12
1452,Nb4 Zn4 Te2 O16,1.0583,1
1453,Mg2 Ag4 O8,0.0,63
1454,Sb2 W4 O16,0.0,13
1455,Mo8 O18,0.0,85
1456,Be12 V8 Si12 O48,1.8777000000000004,14
1457,Be12 Si12 Ni8 O48,0.0,1
1458,Sr4 Y4 Ti4 O14,0.0,46
1459,Ca4 Mn4 O8,0.8195000000000001,1
1460,V4 P8 O28,1.3181000000000003,14
1461,Ca2 Mo4 O12,0.5568,1
1462,Sr3 Mg1 Mn2 S2 O5,0.0,119
1463,Ba6 Cr6 F33,0.4162,145
1464,La2 Mg2 Cr2 Sn2 O12,2.502299999999999,7
1465,Ag4 Cl4,0.5962000000000001,221
1466,Ti1 Al1,0.0,123
1467,Nb1 Fe3,0.0,221
1468,Mg4 Si8,0.0,12
1469,La5 Sm3 Cr7 Fe1 O24,1.9836,8
1470,K1 Na7 V7 Mo1 O24,0.0,160
1471,La6 Sm2 V5 Cr3 O24,0.0,6
1472,La7 Sm1 Co6 Ag2 O24,0.0,8
1473,Ca4 Cu4 O10,0.0,46
1474,La5 Sm3 Cr6 Fe2 O24,1.7537000000000003,38
1475,La7 Sm1 Mn2 Fe6 O24,0.0,35
1476,La5 Sm3 Cr8 O24,1.916599999999999,123
1477,K12 Na20 V8 Mo24 O80,0.0,1
1478,La20 Sm12 Ni28 Ag4 O80,0.0,1
1479,Sm1 Cu1 O3,0.0,221
1480,K2 Cu1 Cl4 O2,0.5265,139
1481,U3 In3 Pd3,0.0,38
1482,Gd2 B4 C4,0.0,131
1483,Sr2 Fe2 As2 F2,0.0,59
1484,Ti2 Fe2 H4,0.0,26
1485,Sm2 B4 C4,0.0,131
1486,Er2 Ni1 Sn6,0.0,65
1487,Zr3 As3 Os3,0.0,189
1488,Al2 W4 C2,0.0,194
1489,U2 In2 Pt4,0.0,63
1490,Mo1 Os1 Pb2 O6,0.49040000000000017,225
1491,Re3 N5,0.0,44
1492,Ce8 Sb8 Se20,0.0,14
1493,Ce6 Se12,0.5109999999999997,15
1494,Sr2 La1 Co1 O6,0.0,139
1495,Si4 Mo6,0.0,127
1496,Zn2 Ga2 S5,0.7654000000000001,166
1497,Zn4 Ga4 S10,0.7439,194
1498,Zn2 Ga2 S5,0.0,160
1499,Zn4 Ga4 S10,0.036599999999999966,186
1500,Li2 Ni6 P6 O26,0.0,11
1501,La4 Mg8,0.0,63
1502,Mg8 Sn4,0.0,8
1503,Sr4 Mg2,0.0,189
1504,Sr2 Mg10,0.0,38
1505,Sr8 Mg4,0.0,63
1506,Mg8 Ti4,0.0,63
1507,Y4 Mg2,0.0,187
1508,Y2 Mg4,0.0,187
1509,Y6 Mg6,0.0,8
1510,Mg3 Ti3,0.0,156
1511,Mg8 Sn4,0.0,38
1512,Mg8 Sn4,0.0,63
1513,Mg2 Ga4,0.0,164
1514,Y2 Mg2,0.0,59
1515,Ce3 Mg15,0.0,155
1516,Mg2 Zn2,0.0,164
1517,Mg4 Bi8,0.0,63
1518,Ca4 Mg6 Si2,0.0,194
1519,Cu4 Br2 O6,0.0,11
1520,Ba1 Mg30 Sn1 O32,1.6185999999999998,123
1521,Ce1 Cu1 N2,0.0,123
1522,Ag2 H2,0.8529999999999998,186
1523,Ba2 Y1 Cu3 S7,0.0,47
1524,Ca4 Mn4 O10,0.0,31
1525,La4 Ti4 O10,0.0,46
1526,Eu4 Ni4 O10,0.0,1
1527,Mg30 Sn1 Bi1 O32,0.0,123
1528,Ce8 Se16,0.6328,61
1529,Sr1 Ce1 Mg14,0.0,38
1530,Sm4 Ni4 O10,0.6478000000000002,46
1531,La5 Sm3 V2 Cr6 O24,0.4632000000000005,38
1532,Na4 Mo4 O10,0.5543999999999998,46
1533,La4 Ti4 O10,0.0,46
1534,Ca2 Sn4 S10,0.40879999999999983,59
1535,V1 Si1 Rh1,0.33969999999999967,216
1536,Li9 Mn2 Co5 O16,0.0,6
1537,Li9 Mn2 Co5 O16,0.0,6
1538,Li9 Mn2 Co5 O16,0.0,6
1539,Li9 Mn2 Co5 O16,0.0,8
1540,Li9 Mn2 Co5 O16,0.0,8
1541,Li9 Mn2 Co5 O16,0.0,8
1542,Li9 Mn2 Co5 O16,0.0,10
1543,Mg10 Si12,0.0,2
1544,Zr40 S27,0.0,156
1545,Li4 Ni8 P12 O48,0.00030000000000002247,14
1546,Fe9 P12 O48,0.0,1
1547,Re4 N8,0.0,57
1548,Mg6 O6,2.8813999999999997,223
1549,Ce4 Mg8,0.0,63
1550,Nb1 Mo6 S8,0.0,148
1551,K1 Fe2 Mo2 O10,0.0,12
1552,La4 Co3 B6,0.0,12
1553,Ti1 Mo6 Se8,0.08090000000000064,2
1554,Y4 Co3 B6,0.0,166
1555,Na2 Cu1 Se2 O10,0.4136,2
1556,Na1 Fe2 Mo2 O10,0.0,12
1557,Mg2 P2 N2 O10,2.3828,31
1558,H4 Pd2 Pb4 O8,1.3215,2
1559,Pb8 O4 F8,0.8859999999999997,115
1560,Rb2 Sb6 S10 O2,1.1311,2
1561,Rb2 Rh1 Au1 F6,0.00019999999999997797,225
1562,K2 Pr1 Ag1 F6,2.3844,225
1563,K3 Ga1 Br6,2.0602,225
1564,Na2 Li1 Bi1 F6,4.3529,225
1565,K2 Ag1 Mo1 I6,0.2502000000000002,225
1566,Na2 Tl1 Cu1 Cl6,0.0,225
1567,K1 Na2 Rh1 F6,2.0696,225
1568,Cs1 Rb2 Ga1 I6,1.1875,225
1569,Na2 Tm1 Cu1 Cl6,1.6033000000000004,225
1570,K2 Al1 Tl1 I6,1.5653000000000001,225
1571,Li3 Al1 F6,6.505599999999999,225
1572,Na2 Sc1 Ag1 F6,2.0394,225
1573,Na2 Li1 Tl1 Cl6,1.6282999999999999,225
1574,Na3 Y1 Cl6,3.8717,225
1575,Eu1 Na2 Cu1 Cl6,0.0,225
1576,Na2 Lu1 Ag1 Cl6,2.8698,225
1577,Na2 Ag1 Sb1 Cl6,1.5313999999999999,225
1578,K2 Li1 Au1 Cl6,0.0,225
1579,Rb2 Ga1 Au1 Br6,0.0,225
1580,K2 Au2 F6,0.0,221
1581,Na3 Dy1 Cl6,3.8717,225
1582,Cs1 K2 Tl1 F6,3.4583,225
1583,K2 Y1 Hg1 Br6,0.0,225
1584,Cs1 K2 As1 Cl6,3.3968,225
1585,Cs1 K2 Sb1 Cl6,3.1197,225
1586,K2 Y1 Au1 I6,1.1783,225
1587,K2 Y1 Au1 Cl6,2.079,225
1588,K2 Dy1 Au1 Cl6,2.0355,225
1589,K2 In1 As1 Cl6,0.4868999999999999,225
1590,K2 Ga1 Hg1 Br6,0.0,225
1591,K2 Ga1 Hg1 I6,0.0,225
1592,K2 Al1 Au1 F6,1.3159,225
1593,Cs2 Ta1 Ag1 Br6,0.0,225
1594,Cs2 Rb1 Au1 Cl6,0.0,225
1595,Cs2 Ga1 Au1 F6,0.9576,225
1596,Cs3 Au1 Br6,0.0,225
1597,Rb2 Al1 Hg1 Cl6,0.0,225
1598,Rb2 Nd1 Au1 Cl6,2.1398,225
1599,Rb2 In1 As1 F6,2.0633999999999997,225
1600,Rb3 Tl1 I6,0.6175999999999999,225
1601,K1 Rb2 Au1 Cl6,0.2681,225
1602,Ca4 Sn2 N4,0.0,1
1603,K2 La4 O7,2.6747,162
1604,Ti8 Zn4 Sn4 O24,0.030999999999999694,137
1605,Na8 Cr16 Bi8 O48,0.03919999999999968,146
1606,Be2 Mo6,0.0,223
1607,Sr2 Ti2 Cu2 O8,0.0,129
1608,Sr3 Fe2 O4 F3,0.0,44
1609,Ca1 Nb2 Cu1 Br1 O7,0.0,123
1610,Ba4 Pd3 Br1 O6,0.0,229
1611,Ba1 Cu1 S2,0.0,119
1612,Ti1 Pt1,0.0,221
1613,C8 N12 Cd2,4.5428,58
1614,Ni4 Ge12 O32,1.8855000000000002,212
1615,Na1 Ni4 F10,0.0,3
1616,Li8 Mn2 Co4 O14,0.0,12
1617,Li7 Mn2 Co3 O12,0.0,2
1618,Li7 Mn2 Co3 O12,0.0,8
1619,Li7 Mn2 Co3 O12,0.0,1
1620,Li7 Mn2 Co3 O12,0.0,1
1621,Li7 Mn2 Co3 O12,0.0,1
1622,Li7 Mn2 Co3 O12,0.0,6
1623,Li9 Mn2 Co5 O16,0.0,2
1624,Li9 Mn2 Co5 O16,0.0,1
1625,Mg2 Fe4 O10,0.0038999999999997925,1
1626,Mg2 Fe4 O10,0.0,15
1627,Fe8 O2 F14,0.12320000000000009,4
1628,Cu1 Ni1 O2,0.0,12
1629,Zn1 Br2,3.1513,12
1630,Si1 Hg2 O4 F6,0.0,2
1631,S2 O8,0.2526999999999999,15
1632,P8 Pb8,0.0,14
1633,Mg1 Co1 Cu3 Se4,0.0,215
1634,Na8 Zr4 Si12 O40,0.5186,19
1635,La8 Ni8 O20,1.9900000000000002,14
1636,Cu3 Ni1 Pb1 Se4,0.0,215
1637,Ga4 Pt12,0.0,127
1638,Cr1 Cd1 Cu3 Se4,0.0,215
1639,Fe4 O6,1.6832999999999998,15
1640,Cd2 S2,0.28370000000000006,59
1641,Fe1 H36 C12 S6 Br3 O6,1.4727000000000001,148
1642,K12 Ho4 Si12 O36,2.8171,31
1643,Ac3 Ce1,0.0,221
1644,Al3 Cd1,0.0,221
1645,Ca1 Dy3,0.0,139
1646,Cr1 H3,0.0,221
1647,Cr1 Re3,0.0,221
1648,Ce6 Au2,0.0,63
1649,Ce1 Eu1 Ag2,0.0,225
1650,Ce6 Sc2,0.0,194
1651,Ce1 Pr3,0.0,139
1652,Cs1 Th1 O3,0.0,221
1653,Er1 Bi3,0.0,221
1654,Fe3 Au1,0.0,139
1655,Ga3 Au1,0.0,139
1656,Gd6 Si2,0.0,194
1657,Hf1 Tl1,0.0,187
1658,Ho2 Br4,0.0,136
1659,Ho1 Th1 Os2,0.0,225
1660,K3 Li1,0.0,221
1661,K3 Ba1,0.0,139
1662,La1 Pr1 Ir2,0.0,225
1663,Li1 Ce2 Al1,0.0,225
1664,Lu2 Bi6,0.0,194
1665,Mg16 Al12 N1,0.0,8
1666,Mg16 Mn1 Al12,0.0,217
1667,Mg2 Ge2,0.0,12
1668,Mg2 Sb4,0.0,12
1669,Na1 Ga3,0.0,221
1670,Na2 Zn6,0.0,194
1671,Nd2 Zn1 In1,0.0,225
1672,Pm6 Zr2,0.0,194
1673,Sr2 Nd6,0.0,194
1674,Sr2 Pr6,0.0,194
1675,Tb3 Zn1,0.0,221
1676,Tl3 Zn1,0.0,221
1677,Yb1 Cr1 O3,0.0,221
1678,Yb1 F3,0.0,225
1679,Yb6 Tm2,0.0,194
1680,Yb6 Lu2,0.0,194
1681,Zr6 Pt2,0.0,194
1682,Ge6 Mo10,0.0,63
1683,Sm2 Fe15 Si2,0.0,166
1684,U6 Cu6 Sb8,0.0,220
1685,Sr4 Sc2 Fe2 P2 O6,0.0,129
1686,Na4 Br4 O12,4.8237000000000005,198
1687,Tb10 Ge6 B2,0.0,193
1688,Co4 Sb4 O14,0.7933000000000003,227
1689,Bi2 P6 N2 O20,0.2567999999999997,2
1690,Nd2 I6 O20,0.8860999999999999,4
1691,Ba4 Yb8 Se16,1.4696999999999998,62
1692,Cu4 H8 C4 Br4 N8,2.0740000000000003,62
1693,Cd4 Ge6 O18,0.0,2
1694,Zn4 H4 N4 O16,1.9935999999999998,33
1695,Li8 Si4 O14,0.0,113
1696,H24 Pb4 C12 S8 I4 N4,2.9010000000000002,14
1697,Mg12 H48 C48 O48,4.3705,14
1698,B18 H42 C12 S6,3.5996,9
1699,K8 Si12 Sn4 O40,0.8942,19
1700,Co4 H40 C16 N16 O32,2.8765,33
1701,Si16 Mo4 H144 C48 N8 O8,3.6974,62
1702,H16 Pt2 N16 O4,2.3306,2
1703,Li4 Si16 H172 C68 S4 O8,2.8354,2
1704,Mn2 H72 C24 S12 I4 O12,3.5245,9
1705,Co2 B20 H38 C22,1.6511,2
1706,U8 Pb4 S20,0.0,62
1707,Cu4 Ag4 As8 O32,0.03799999999999992,14
1708,Sr16 As16 O64,0.06380000000000001,2
1709,Na8 Be4 Si12 Sn2 O40,0.33509999999999995,9
1710,Dy6 Al4 Ni12 H18,0.0,229
1711,K4 Mn4 C12 N12,0.0,14
1712,H24 C8 N12 O12,3.9143,14
1713,Li4 Zn4 Si8 H188 C68 N16,2.8642,14
1714,U8 Pb4 I8 O52,0.1541999999999999,14
1715,K4 In4 P8 O32,0.2673,14
1716,Pu8 Tc4 B24,0.0,55
1717,H8 Pb4 C8 O16,4.0084,19
1718,La32 Mo42 O112,0.6152000000000006,14
1719,Sr4 U8 I8 O52,0.35250000000000004,14
1720,Mn4 H56 C32 N8 O24,2.5602,60
1721,K8 Al8 Si8 O36,0.5299,19
1722,Ba6 Mo4 I4 O36,0.0,43
1723,Li4 Ce4 S8 O36,0.3506,14
1724,Co4 H44 C2 N16 O24,2.8303000000000003,2
1725,Zn2 H40 C8 N20 O24,3.4278,14
1726,Ni2 B20 H52 O16,3.5647,15
1727,Rb8 U4 Mo8 O44,0.8738,14
1728,H40 Pt4 C8 N8 Cl8,2.5965,14
1729,B12 H80 C12 N12,5.4519,14
1730,Nd6 Si8 Ni58,0.0,129
1731,Ti8 Si40 O104,0.08240000000000025,15
1732,Li2 Al4 Si16 H222 C84 S2 N12,3.1754,2
1733,Mn8 Fe4 P8 O44,0.20110000000000006,60
1734,P8 H48 Rh4 C16 O16,1.2014,15
1735,Gd6 Al4 Ni12 H18,0.0,229
1736,Be8 H192 C64 S32 Cl16 O32,3.684,61
1737,Bi2 H36 C6 S6 O36 F18,5.607900000000001,176
1738,K4 Sb4 P4 O16 F8,0.07189999999999996,14
1739,Mn4 P8 H48 C16 O32,4.5476,2
1740,Co2 H16 C8 O16,2.4398,15
1741,Pt2 C16 S8 F24,1.0898,14
1742,Na4 Ce2 Si12 O33,0.12650000000000006,25
1743,In6 Sn12 P6 H144 C48,3.1109,2
1744,Na8 Fe8 P8 H16 C16 O48,3.6189,61
1745,Cs4 K2 Cr2 C12 N12,2.0011,14
1746,Bi8 S4 O28,0.0,14
1747,Tm4 B8 H4 O20,4.6452,15
1748,K12 Ta4 O8 F28,0.18100000000000005,33
1749,Rb20 P16 O64,0.0,62
1750,Na20 U2 S12 O58,0.0,9
1751,Fe6 Se6 O20,0.3601000000000001,2
1752,Li2 Mn2 P8 O28,0.0,15
1753,V4 H60 C16 S8 N8 O40,0.062000000000000055,14
1754,Fe2 H14 C8 O16,1.457,2
1755,Zn8 Si4 H4 O20,0.21589999999999998,34
1756,Gd2 B12 O24,0.17459999999999998,161
1757,Tb8 Ni2 B26,0.0,128
1758,Mn8 N8 O40,0.03269999999999995,14
1759,Al4 P12 O40,0.11049999999999999,14
1760,As4 P4 H4 Br12 O4 F24,3.5469,62
1761,Mn12 As4 O32,0.010299999999999976,62
1762,Fe4 H48 C20 N4 Cl8 O20,2.4343,14
1763,Ho2 B12 O24,0.1074,161
1764,Re4 H8 N4 Cl16 O4,1.2622,62
1765,Na12 Cu4 P4 H4 Cl4 O20,0.20730000000000004,62
1766,Sn4 H80 C28 I4 N4,3.3375999999999997,14
1767,Co4 P4 H48 O36,0.8927,55
1768,Co2 As4 S12 N12 F36,2.4396,14
1769,Rb4 In4 P8 O32,0.25110000000000005,14
1770,Na8 Mn8 P8 H16 C16 O48,3.6802,61
1771,P12 H34 S12 N14 O14,3.6285,2
1772,Sn2 H8 S12 N12 Cl12,2.1476,14
1773,Na2 Se8 O24,0.44179999999999997,7
1774,Rb4 Ho4 S8 O36,0.9101,14
1775,U4 H168 C56 S28 Cl16 O28,0.22729999999999995,14
1776,Ba7 Fe6 O2 F32,0.3164,12
1777,Al24 P24 H64 C16 N8 O104,0.9553999999999999,61
1778,Zn4 H48 C24 S16 N8,2.4845,15
1779,H32 C16 N24 Cl8,4.0685,14
1780,K4 Os2 N2 Cl10,1.8145,36
1781,Nd1 Eu2 Ta1 O6,0.7300999999999993,225
1782,S2 O8,0.24549999999999983,9
1783,Sr2 La1 Ta1 O6,3.5136000000000003,225
1784,Ce2 Lu2 S6,0.0,20
1785,Nd2 Lu2 S6,0.7877999999999998,20
1786,Pr2 Cu4 Sn5,0.0,107
1787,La2 O4,0.03049999999999997,11
1788,Sr2 Nd1 Nb1 O6,2.8821,225
1789,Zn2 As4 C8 N4 F36,5.0064,14
1790,Y4 W4 O20,0.0,14
1791,Th2 V4 O12,1.4220000000000002,136
1792,Sr8 Rh2,0.0,227
1793,Sr2 Lu1 Cu2 Bi2 O8,0.0,139
1794,Rb8 O16 F8,0.752,113
1795,Pr2 I6 O20,0.8493999999999999,4
1796,Pr10 Fe4 Sb2,0.0,140
1797,Sb8 Te16 Se8 F48,1.4648,19
1798,Nd4 Ta4 O18,0.3033999999999999,14
1799,Nb8 Co8 Si12,0.0,139
1800,Np8 W16 O64,0.18270000000000008,61
1801,Li2 Mn1 N1,0.0,191
1802,Li2 Ga2 P2 O10,0.08350000000000013,2
1803,Li3 Ti3 Ni3 F18,0.1682999999999999,150
1804,Pr6 N8 O33,0.0,2
1805,Nd6 N8 O33,0.0,2
1806,K2 Al4 Si8 H4 O24,0.0,15
1807,Ho4 W4 O20,0.0,14
1808,K3 Ru1 F12,0.0032999999999998586,12
1809,Gd6 Sb8,0.0,220
1810,Mn6 H36 C16 N72 O12,2.1635,72
1811,Dy4 W4 O20,0.0,14
1812,Er2 Ni2 Sn8,0.0,65
1813,Er6 Mn6 Ga6,0.0,46
1814,Er4 W4 O20,0.0,14
1815,Cs2 Fe4 Te6,0.0,63
1816,Li12 Nd8 N36 O120,0.788,198
1817,Cu4 H32 C8 N16 O24,0.6411,15
1818,Dy4 H52 C32 N24 O52,3.0549,15
1819,Cu4 H32 C8 N16 O24,0.7795000000000001,15
1820,Cs2 Li4 U1 O6,2.1857999999999995,164
1821,Cd2 Pt6 O8,0.0,223
1822,Ca1 Fe2 As2 O10,0.2531000000000001,12
1823,Co2 H40 C8 N20 O24,3.1856999999999998,14
1824,C4 Br4 F8,4.5146,14
1825,Ca2 La2 Cu3 O8,0.0,139
1826,C8 S8 N4 Cl12,1.5676999999999999,19
1827,C26 Cl24,2.4615,2
1828,C56 Cl40,2.0725999999999996,60
1829,Ag6 P6 H2 O18,0.0,12
1830,Zr1 Ti1 Nb1,0.0,42
1831,Zr1 Ta1 N2,0.0,166
1832,Zr2 Ga2 Cu2,0.0,164
1833,Zr2 B1 N1,0.0,166
1834,Zn2 Co1 S3,0.0,156
1835,Y1 U1 Al4,0.0,216
1836,Y1 Bi1 Te3,1.0235000000000003,160
1837,Y8 Zr8 O24,0.5541,24
1838,Y1 U1 Cr4 Si4,0.0,123
1839,Y2 Fe2 Cu2,0.0,74
1840,U2 Cr2 Co2,0.0,74
1841,Zn8 P6 O26,0.0,1
1842,Y3 Mn3 Ga2 Ge1,0.0,174
1843,U1 Al7 Ga1 Fe4,0.0,44
1844,Zn4 Te4 H32 N16,2.7256,7
1845,V2 C1 N1,0.0,123
1846,Tm1 Bi1 Te3,1.1258,160
1847,Ti1 Zn1 Hg2,0.0,123
1848,U1 Ga2 Cu3,0.0,65
1849,Ti2 Mn2 Sb2,0.0,194
1850,Ti1 Ni2 Sn1,0.0,123
1851,V2 Fe1 Cu3 O6,0.5091000000000001,12
1852,Ti4 Cr1,0.0,69
1853,U1 Fe5 Co5 Si2,0.0,8
1854,Tb1 Bi1 Te3,1.0366,160
1855,Tb1 Fe10 Mo2 N1,0.0,71
1856,Tb3 Mn3 Ga2 Si1,0.0,174
1857,Tb3 Lu1 Mn8,0.0,160
1858,Ta2 V2 Cu2,0.0,74
1859,Ta1 Nb1 V1,0.0,42
1860,Ta1 Bi1 W2 O10,0.0,38
1861,Ta4 N3,0.0,139
1862,Ta3 Cr8 Si1,0.0,156
1863,Sr2 Fe2 O4 F2,0.6617999999999999,12
1864,Sr6 Fe2 Ru2 O11,0.0,5
1865,Sr2 Nb2 Bi3 Br1 O11,0.0,123
1866,Sm2 Fe17 N2,0.0,12
1867,Sm4 Ti1 Fe33 N4,0.0,1
1868,Sc12 B3 C12,0.0,123
1869,Si16 Pb8 O44,0.48560000000000003,33
1870,Sc2 Al4 C3 O3,0.17240000000000055,160
1871,Sb1 Pb1,0.0,65
1872,Pu4 Zr1 C5,0.0,166
1873,Rb4 P2 S2 O16,0.0,2
1874,Pr2 Ni1 Ge3,0.0,187
1875,P1 Pd6,0.0,38
1876,P7 Rh12,0.0,174
1877,Nb1 V1,0.0,65
1878,Nb1 Os3,0.0,187
1879,Nb2 Rh4,0.0,10
1880,Nd2 Ni1 Ge3,0.0,187
1881,Na1 Sb1 S2,0.21919999999999984,123
1882,Mo3 C2,0.0,164
1883,Mn1 Ni1,0.0,65
1884,Mn4 Cu1,0.0,166
1885,Mn4 Cu6 Ge2,0.0,194
1886,Mg2 Mn1 As2,0.0,156
1887,Mg3 Zn3 As4,0.0253000000000001,1
1888,Lu1 Bi1 Te3,1.1115000000000004,160
1889,Li4 V4 O8,0.0,47
1890,Li7 Mn2 N3,0.0,191
1891,Li5 Al1 Co4 O10,0.0,166
1892,Li2 Mg1 Bi1,0.0,216
1893,Li4 Ca3 Nb6 O20,1.3592,38
1894,Li1 Cu3 O3,0.0,99
1895,Lu6 Mn4 Ga8,0.0,46
1896,Lu6 Ga6 Ni12,0.017000000000000348,164
1897,Li2 Nb2 W2 O13,0.4058,44
1898,La3 Y1 Fe4 As4 O4,0.0,25
1899,In2 Ag1 Te3 Br1,0.0,123
1900,In1 Ag1 Se2,0.0,123
1901,Ho1 Bi1 Te3,1.0667999999999997,160
1902,Ho1 Fe10 Mo2 N1,0.0,71
1903,In1 Ga5 As4,0.0,160
1904,K3 Np3 Si2 O13,0.0,1
1905,K4 P2 S2 O16,0.0,2
1906,Hf4 Ti6 Ga6,0.0,193
1907,K6 Na2 Si12 Sn4 O40,0.4897999999999999,4
1908,K12 Ag4 As8 C1 Se20 O1,0.6541999999999999,1
1909,Fe2 As1 S1 O9,0.04269999999999996,1
1910,Gd1 Cu5 Te4,0.0,12
1911,Gd2 Co1 B3,0.0,187
1912,Fe2 Cu2 Se2 S2,0.0,24
1913,Fe1 Ni2 Ge1,0.0,123
1914,Fe9 P1 O12,0.0,38
1915,Eu1 Cu1 Si3,0.0,119
1916,Fe3 Ge2,0.0,12
1917,Eu1 Cd3 S4,0.0,160
1918,Dy8 Si4 Pd8,0.0,58
1919,Er2 Mn3 Ga1,0.0,166
1920,Dy1 Ho1 Mn4,0.0,216
1921,Er2 O3,2.8706,160
1922,Dy2 Fe15 Si2 C1,0.0,12
1923,Er1 Fe10 Mo2 N1,0.0,71
1924,Dy2 Fe2 Ni2,0.0,74
1925,Cu1 Ni1 Pd1,0.0,156
1926,Gd4 Al4 Ni4,0.0,38
1927,Dy2 P6 H10 O12,1.3163,5
1928,Dy2 Er2 Mn8,0.0,12
1929,Cu2 Sn2 Pd1,0.0,12
1930,Er3 Mn3 Ga2 Ge1,0.0,189
1931,Gd4 B8 H4 O20,2.8137000000000003,7
1932,Co4 Sb1 O8,0.0,12
1933,Gd1 Fe10 Mo2 N1,0.0,71
1934,Cr4 Si4 W4,0.0,38
1935,Cr3 In1 Co2 S8,0.0,166
1936,Co3 Pt1,0.0,166
1937,Cr1 H5 O4,2.4813,6
1938,Cr8 B12 Os4,0.0,6
1939,Cd1 Pd3,0.0,166
1940,Cd1 Ge1 P2,0.0,160
1941,Cd1 Pb1 S2,0.0,123
1942,Ce4 Al4 Co4,0.0,38
1943,Ce2 Mn3 Cu9,0.0,35
1944,Ca1 Zn1 O2,1.5949,156
1945,Cd2 Sb6 S11,0.33809999999999985,6
1946,C2 Cl6,1.9564000000000001,42
1947,Ba1 Be1 Si1,0.0,187
1948,Ba1 La2 Fe2 O5 F4,1.1433999999999997,44
1949,Ba2 Zr1 O3 F2,3.4899000000000004,44
1950,K10 Te4 Mo12 H36 N2 O72,0.20390000000000008,9
1951,B2 Mo2 W2 C2,0.0,63
1952,Al4 Bi8 Te8 Br5 Cl15,1.501,1
1953,Ag2 Sb6 Pb2 S12,0.9013,7
1954,Al16 P16 H44 C28 N8 O66 F4,0.6332,15
1955,Sr4 Nb8 Cu4 Cl4 O28,0.0,123
1956,Cu2 Au2 Cl2 O4,0.0,1
1957,O16 Si8,6.1956,227
1958,Mn2 Co1 Sb1,0.0,216
1959,B2 Y1 Pd7,0.0,225
1960,B4 N4,1.5764,8
1961,Cu4 Te2,0.0,191
1962,O2 Na5 S1 Ni1,1.4204999999999999,123
1963,O10 Ni4 La4,2.0234999999999994,15
1964,Li1 O8 Sc1 Mo3,0.0,156
1965,O16 Co4 Mo6,0.0,186
1966,Mn2 Co1 Ga1,0.0,216
1967,Mn12 Si4 Ir4,0.0,198
1968,Ga2 U1,0.0,191
1969,Fe4 Sb8 S16,0.0,62
1970,As1 Np1,0.0,221
1971,C4 Co12,0.0,62
1972,O12 Ti4 Cd4,2.4627000000000003,26
1973,As1 U1,0.0,221
1974,Yb8 Al4 B24,0.0,55
1975,S8 Co2 In4,0.0,227
1976,Si4 U6,0.0,127
1977,Fe6 S8,0.0,227
1978,Mn12 Ge4 Ir4,0.0,198
1979,Si1 Mn3 Ga2 Tb3,0.0,189
1980,H3 C3 O6 Y1,3.988,160
1981,H36 C12 O6 S6 In1 I3,2.4953,148
1982,H36 C12 N4 P4 Br12,2.666,14
1983,H36 C12 O6 Al1 S6 Cl3,3.7828,148
1984,H16 C12 N12 O8 K2 Ru2 Ho2,3.6899,63
1985,H36 C12 O6 S6 Cl3 Cr1,2.6428,148
1986,O4 Fe2,0.0,141
1987,Cr2 Sb4,0.0,140
1988,Se8 La4,1.3399,14
1989,O18 S2 Zr6,3.8054999999999994,147
1990,B8 Cl8 As4,3.3988,2
1991,Fe2 P2 Se6,0.2601,148
1992,Se1 Te2 Bi2,0.5476000000000001,166
1993,Si1 Ca3 Br2,0.0,139
1994,S10 Fe4 La4,0.0,36
1995,N4 C4 S18,2.5805,4
1996,Li1 Mg2 Ge1,0.0,225
1997,Ti1 Ag1 Hg2,0.0,123
1998,Ag3 Tm1,0.0,221
1999,O28 P8 Ni4,0.0,14
2000,Ga4 Te6,0.0,8
2001,Ag1 I2,0.024599999999999955,115
2002,Pu4 O6,0.0,224
2003,As2 Cu2 Se4,0.30600000000000005,122
2004,F4 Zr1,4.358900000000001,123
2005,Mg1 As1 Ag1,0.0,216
2006,S1 Cd1,0.2713000000000001,225
2007,Se1 Ag1,0.0,216
2008,Al6 Br24,0.0,226
2009,Nd1,0.0,229
2010,O12 Ti4 Cd4,2.4319,33
2011,O48 K12 W6,2.927,167
2012,Pu2 S6 O36 C6 F18 H36,0.0,176
2013,Pr2 Fe2 As2 O2,0.0,129
2014,B13 N2,0.0,166
2015,O16 P4 Co3,0.0,1
2016,Ni4 O16 P4,1.1558,14
2017,La2 O36 H36 S6 C6 F18,5.3933,176
2018,Lu2 O36 H36 S6 C6 F18,5.7735,176
2019,Y2 O36 H36 S6 C6 F18,5.9427,176
2020,Ho2 O36 S6 C6 F18 H36,5.9498,176
2021,Hg1 Zn1 C4 N4 S4,2.4901999999999997,82
2022,Fe4 Mo8 S16,0.0,1
2023,Fe14 S16,0.0,15
2024,Nd2 S6 F18 O36 C6 H36,6.0476,176
2025,O4 C1 Li4,4.9149,5
2026,Zr1 Fe1 F6,0.0,225
2027,Li8 C2 O8,5.351,36
2028,Na4 H48 C16 S8 Br4 O8,4.3026,14
2029,Si24 O48,6.180999999999999,229
2030,Sr2 Al8 O14,3.2333000000000003,67
2031,Ag2 Sb2 C4 N4 Cl4 F12,3.637,13
2032,Sr4 H8 C8 O16,4.6652,19
2033,Ti3 S3,0.0,166
2034,Na4 Te4 H48 C12 O12,2.0122,163
2035,P4 H40 C12 N8 O16 F4,5.1415,14
2036,Yb3 S2 F4,0.0,139
2037,V2 S4 N6 Cl4,0.8613,2
2038,Na4 I4 O12,3.3299999999999996,33
2039,Zr4 S16 N16 Cl24,1.5324,2
2040,Si48 O96,6.106,230
2041,Ca4 H8 C8 O16,4.6823,92
2042,Sn8 O16,0.5726000000000004,61
2043,Ca4 H8 C8 O16,4.6469,96
2044,Cd4 Si2 O8,1.0232,227
2045,Yb4 Pr2 Dy2 S12,1.2582,11
2046,Ca2 Cl4 O8,2.5666,68
2047,Tl4 Sb4 O12,2.1507,182
2048,Cu4 Si2 S6,0.0,157
2049,Ni2 As4 S12 N12 F36,2.7732,14
2050,Fe6 B14 I2 O26,3.3581999999999996,161
2051,Mg2 Zn4,0.0,63
2052,Sm1 Cr2 Si2,0.0,139
2053,C6 N8,1.4139000000000004,187
2054,Tl4 H48 C16 Br16 N20,2.0259,14
2055,In2 Sb2,0.0,59
2056,Tl4 Ni2 C8 N8,2.2822,14
2057,K2 Tm2 I6,0.0,63
2058,Y3 Co9 H6,0.0,166
2059,Rb4 Nd8 I20,0.0,14
2060,Cs4 Li2 Cr2 C12 N12,1.8904,128
2061,C3 N4,1.3801999999999999,160
2062,Tm1 Te1,0.0,99
2063,Yb6 Pt8,0.0,148
2064,Te2 Pt2,0.0,194
2065,Zr3 Cu1,0.0,221