Index,Composition,bandgap,spgN
12330,La1 Co1 O3,0.4388000000000005,221
12331,Rb4 S2,1.8962,194
12332,Ba4 Sr28 Ti20 Mn12 O80,0.0,1
12333,Sr20 Ca12 Ti20 Mn12 O80,0.0,1
12334,La16 Sm16 Co28 Ag4 O80,0.0,1
12335,Sr2 Mn2 Sb4,0.0,59
12336,Bi2 I6,2.2241,11
12337,Na4 Co2 Se4,0.0,72
12338,Ce1 Se2,0.9778000000000002,12
12339,Ce1 Se2,0.9600000000000001,12
12340,Ce13 Se26,0.8789,2
12341,In2 Mo2 S4,0.0,194
12342,Zn1 Ga2 S4,0.8921999999999999,166
12343,Hf6 Mg2,0.0,139
12344,Mg4 Sn8,0.0,63
12345,Mg6 Sn6,0.0,8
12346,Mg2 Ti10,0.0,8
12347,Mg12 Zn6,0.0,155
12348,Mg4 Zn2,0.0,194
12349,Y6 Mg6,0.0,38
12350,Mg4 Ti8,0.0,12
12351,Ca6 Mg8 Zn22,0.0,194
12352,Mg3 Ga1,0.0,187
12353,Mg1 Zr1,0.0,123
12354,Mg4 Bi8,0.0,12
12355,Ca4 Mg8,0.0,139
12356,Pt4 O8,0.0,205
12357,Yb2 Cu2 Pb2 Se6,0.0,63
12358,Cs1 O2,0.0,65
12359,Li1 Mg30 B1 O31,2.3996000000000004,25
12360,Ce2 Se4,0.9637,194
12361,Ca28 Mg4 Mn28 Fe4 O80,0.0,1
12362,Li9 Mn2 Co5 O16,0.4508000000000001,8
12363,Li9 Mn2 Co5 O16,0.3649,8
12364,Li9 Mn2 Co5 O16,0.45899999999999963,8
12365,Li9 Mn2 Co5 O16,0.4655,8
12366,Li9 Mn2 Co5 O16,0.6282999999999999,10
12367,Li9 Mn2 Co5 O16,0.1391,10
12368,C4 N4 S4 Ca2,3.3977,15
12369,V12 O8 F20,1.3825,58
12370,V2 P10 O30,0.0,7
12371,Tm4 In4 O12,2.5273000000000003,62
12372,Sr2 Ca2 I8,2.8195000000000006,15
12373,Nb1 O1 F3,2.0772,71
12374,Fe3 P4 O14,1.2376,1
12375,Cu2 W2 O8,0.0,13
12376,Ce4 Co3 B6,0.0,166
12377,Hg1 H4 C2 N4 Cl2,2.3002000000000002,1
12378,K1 Mn2 Mo2 O10,0.5147999999999999,12
12379,Cu2 S2 O10,0.0,2
12380,Pr1 Co4 P12,0.0,204
12381,Sr4 V2 Fe2 As2 O6,0.0,129
12382,K2 Rb1 Y1 F6,5.525,225
12383,K2 Rb1 Ce1 F6,0.0,225
12384,Rb2 Cu1 Mo1 Br6,0.3540000000000001,225
12385,K2 Rb1 Sb1 Cl6,3.3087,225
12386,K2 Rb1 Mo1 Cl6,1.6362999999999999,225
12387,Rb3 Al1 Br6,3.2346,225
12388,K2 Na1 Pr1 F6,5.948499999999999,225
12389,K3 Nd1 F6,5.4782,225
12390,K3 Y1 I6,3.1873,225
12391,K2 Na1 Nb1 F6,0.0,225
12392,Eu1 K3 Cl6,0.0,225
12393,K2 Tl1 Bi1 F6,2.9379999999999997,225
12394,K2 Rb1 As1 Br6,2.9036999999999997,225
12395,Rb2 Y1 Au1 Br6,1.6684,225
12396,K2 Tl1 Hg1 F6,0.0,225
12397,K2 In1 Ga1 Br6,0.8229,225
12398,K2 Al1 In1 Cl6,2.7653000000000003,225
12399,K2 Nd1 Cu1 Cl6,2.1889,225
12400,Cs1 K2 Ru1 F6,0.0,225
12401,Eu1 K2 Au1 Cl6,0.0,225
12402,Cs2 Rb1 Ga1 Br6,2.1401000000000003,225
12403,Cs2 Hg1 Au1 F6,0.0,225
12404,Cs1 Rb2 Dy1 Cl6,4.4342,225
12405,Rb2 In1 Sb1 F6,1.9097,225
12406,Rb2 Tl1 Ga1 Br6,1.4453,225
12407,Cs2 Ta1 Ag1 F6,0.30210000000000004,12
12408,Zn6 W4 O14,1.9405000000000006,36
12409,Sr3 Ca5 Mn7 Fe1 O24,0.0,8
12410,Ca1 Al2 Sn2,0.0,164
12411,Li4 Mn1 Co3 O8,0.3778999999999999,10
12412,Li6 Co4 O10,0.23570000000000002,2
12413,Li6 Mn2 Co2 O10,0.5421,12
12414,Li6 Mn2 Co2 O10,0.4346000000000001,12
12415,Li4 Mn1 Co3 O8,0.0,2
12416,Li4 Mn1 Co3 O8,0.07699999999999996,2
12417,Li6 Mn2 Co2 O10,0.0,1
12418,Li8 Co6 O14,0.6307999999999998,1
12419,Li6 Mn2 Co2 O10,0.0,8
12420,Li7 Co5 O12,0.5011000000000001,2
12421,Li7 Co5 O12,0.04519999999999991,12
12422,Li8 Co6 O14,0.0,12
12423,Li7 Co5 O12,0.2604000000000002,10
12424,Li7 Co5 O12,0.11680000000000001,10
12425,Li7 Mn2 Co3 O12,0.30479999999999974,12
12426,Li8 Mn2 Co4 O14,0.15710000000000024,8
12427,Li8 Mn2 Co4 O14,0.1583000000000001,8
12428,Li6 Mn3 Co1 O10,0.19589999999999996,1
12429,Li6 Mn3 Co1 O10,0.26690000000000014,1
12430,Li7 Mn2 Co3 O12,0.3613999999999997,2
12431,Li7 Mn2 Co3 O12,0.44110000000000005,2
12432,Li7 Mn2 Co3 O12,0.0,1
12433,Li7 Mn4 Co1 O12,0.0,1
12434,Li9 Co7 O16,0.0,12
12435,Li9 Mn2 Co5 O16,0.4699,2
12436,Li9 Co7 O16,0.0,2
12437,Li9 Co7 O16,0.0,12
12438,Li9 Mn2 Co5 O16,0.47520000000000007,2
12439,Li9 Mn2 Co5 O16,0.6397999999999997,2
12440,Li9 Mn2 Co5 O16,0.5846999999999998,2
12441,Li9 Mn2 Co5 O16,0.24239999999999995,1
12442,Li9 Mn2 Co5 O16,0.8046000000000002,2
12443,Li9 Mn2 Co5 O16,0.30489999999999995,1
12444,Li9 Mn2 Co5 O16,0.0,2
12445,Li9 Mn2 Co5 O16,0.5794000000000001,1
12446,Li9 Mn2 Co5 O16,0.25680000000000014,2
12447,Li9 Mn2 Co5 O16,0.4828000000000001,2
12448,Li9 Mn2 Co5 O16,0.31000000000000005,1
12449,Li9 Mn2 Co5 O16,0.41380000000000017,1
12450,Li9 Mn2 Co5 O16,0.47250000000000014,1
12451,Li9 Mn2 Co5 O16,0.39190000000000014,1
12452,Li9 Mn2 Co5 O16,0.3145000000000002,1
12453,Li9 Mn2 Co5 O16,0.16590000000000016,1
12454,Li9 Mn2 Co5 O16,0.7486000000000002,2
12455,Li9 Mn2 Co5 O16,0.17269999999999985,1
12456,Li9 Mn2 Co5 O16,0.4977999999999998,1
12457,Li9 Mn2 Co5 O16,0.33099999999999996,1
12458,Li9 Mn2 Co5 O16,0.5770000000000004,1
12459,Li9 Mn2 Co5 O16,0.5368000000000004,1
12460,Li9 Mn2 Co5 O16,0.39620000000000033,1
12461,Li9 Mn2 Co5 O16,0.649,1
12462,Li9 Mn2 Co5 O16,0.0,1
12463,Li9 Mn2 Co5 O16,0.0,1
12464,Li9 Mn2 Co5 O16,0.5068999999999999,1
12465,Li9 Mn2 Co5 O16,0.3651,3
12466,Li9 Mn2 Co5 O16,0.6263999999999998,3
12467,Li9 Mn2 Co5 O16,0.7930000000000001,12
12468,Li9 Mn2 Co5 O16,0.2131000000000003,12
12469,Na32 Ni8 O32,0.0,1
12470,Mn12 O10 F14,0.27180000000000004,1
12471,Li4 Mn4 Sn4 O16,0.7071000000000005,95
12472,Li8 Ti8 S16 O64,0.17819999999999991,7
12473,Li6 Mn1 Sb3 P6 O24,0.23009999999999975,1
12474,Li6 Fe7 O15,0.0,8
12475,Li40 Sb8 S8,1.2817,14
12476,Li5 Mn2 Co2 P4 O16,0.0,1
12477,Li4 Y3 Zr1 O8,0.0,21
12478,Li4 Mn5 Co1 O12,0.11009999999999964,12
12479,Li8 Co4 C8 S2 O32,0.0,22
12480,Li3 V3 Sb1 O8,0.7475999999999994,12
12481,Li6 V4 C8 O24,0.3900999999999999,4
12482,Li3 Mn1 Fe3 O8,0.0,2
12483,Li6 Fe8 P16 O56,0.018199999999999883,1
12484,Li4 Fe2 B2 As2 O14,0.3708,11
12485,Li8 Fe4 B4 O16,2.7975,14
12486,Li4 Cr2 Te2 O12,0.40680000000000005,1
12487,Li13 Mn6 P8 O32,0.0,1
12488,Li11 V6 O5 F19,0.37750000000000017,1
12489,K4 Ho4 Co4 Si8 O28,2.8758000000000004,3
12490,Fe4 O4 F4,1.4533,131
12491,Fe4 O4,0.4487000000000001,9
12492,Fe5 O1 F11,1.5628,1
12493,Fe7 O7 F1,0.0,8
12494,Fe10 O6 F14,0.6977000000000002,31
12495,Fe8 O10 F6,0.0,59
12496,Er4 Ti2 O10,2.9776999999999996,15
12497,Cr2 O2,0.17080000000000028,15
12498,Co6 O5 F7,0.21589999999999998,1
12499,Bi10 O14 F2,2.5875,12
12500,Co8 O16,0.0,5
12501,Ba4 Li16 O12,3.4385000000000003,9
12502,Ag4 Te2 O8,0.04039999999999999,1
12503,Zn12 P8 H28 O48,0.09809999999999997,19
12504,Ta4 H8 O14,4.088699999999999,43
12505,Tl8 B16 O34,0.4636,2
12506,Sb16 Te16 O72,1.7767,14
12507,Li12 Se6 O24,3.5541,148
12508,Ba1 Pt1 O3,0.0,221
12509,Ca1 La1,0.0,187
12510,Ce1 Er3,0.0,139
12511,Dy1 Ta1 Os2,0.0,225
12512,Fe3 W1,0.0,221
12513,In6 Ag2,0.0,194
12514,Hf1 Sc1 Tc2,0.0,225
12515,Ho1 Zr1,0.0,187
12516,Lu1 Bi1 Pd2,0.0,225
12517,Mg16 Al12 Mo1,0.0,160
12518,Mg16 Al12 Ni1,0.0,160
12519,Mg16 Al12 Rh1,0.0,160
12520,Mg5 Pt1,0.0,12
12521,Mn2 Co6,0.0,194
12522,Na3 Zn1,0.0,139
12523,Na3 Zn1,0.0,221
12524,Nd2 Eu6,0.0,194
12525,Pu3 Ru1,0.0,139
12526,Sc1 Pb3,0.0,139
12527,Tb3 Ce1,0.0,139
12528,Th1 Pa3,0.0,221
12529,Li4 Tm6 Ge6,0.0,63
12530,Th4 Fe2 S10,0.0,15
12531,Nd1 Co4 P12,0.0,204
12532,In1 B5 O10,0.0,5
12533,Nd10 Si6 C2,0.0,193
12534,Sr4 Cr2 Fe2 As2 O6,0.0,129
12535,Na4 Ti6 O13,0.0,12
12536,Na2 Pb4 C4 O14,0.0,9
12537,Hg2 Sb2 O2 F16,1.8984999999999999,2
12538,Er4 C4 O16,0.7588,19
12539,Co6 P4 O20,0.0,14
12540,Ti6 Ga16 Pt7,0.0,225
12541,Al8 H80 C32 N8 Cl16,5.2797,62
12542,Co6 H42 C18 N6 O36,2.8182,173
12543,Mn8 Te4 S4 O32,0.30020000000000024,57
12544,Lu6 Fe12 O24,0.0,12
12545,Fe2 Si12 H108 C40,0.38989999999999997,15
12546,Np12 Se4 O52,0.1319999999999999,14
12547,Al4 Si8 O24,0.49350000000000005,15
12548,K8 Si12 Pb4 O40,0.8566,14
12549,Ho2 Al6 H72 C24,3.9924,15
12550,In4 Si16 H164 C60 O4,3.5632,14
12551,K8 In16 Ge30,0.16380000000000017,223
12552,K6 Li6 P12 O38,0.0,148
12553,Nd4 B20 I4 O44,1.1153,14
12554,U8 O24,1.8523,70
12555,Al12 Si12 Pb8 O52,0.05849999999999955,62
12556,Zn6 Si28 H180 C60 O8,2.7698,2
12557,Ba4 Li2 B20 O38,0.023400000000000032,2
12558,H4 S8 N4 Cl8 O16,4.1744,14
12559,Ag4 H12 Pd2 S4 N4 O12,1.8882,14
12560,Ba2 H12 C4 S2 N2 O10,3.6067,2
12561,Na2 U2 Zn1 H8 C12 O28,0.18149999999999977,2
12562,Eu10 V6 S12 O14,0.0,59
12563,Er2 Al6 H72 C24,4.1462,15
12564,Co4 P8 H52 C8 N4 O36,3.201,14
12565,Cs12 As4 Se16 O4,1.0358,14
12566,Co4 P8 H64 O40,3.2392000000000003,142
12567,Cd2 Re4 H52 C12 S12 N24 O18,2.5209,15
12568,Y8 Cr8 O40,0.5362,14
12569,Zn4 H36 C16 N12 O24,4.4831,52
12570,Ge8 H80 Se24 N32,1.7348000000000001,110
12571,Eu2 Gd1 Ta1 O6,0.5667999999999997,225
12572,La2 Mg2 Ni4,0.0,63
12573,Th2 Si2 Ge2,0.0,109
12574,Mn2 Co2 Sn2,0.0,194
12575,In4 Sb2,0.0,194
12576,Nd2 Ge6 Au1,0.0,38
12577,Zr12 Ga4 Ni2 H20,0.0,190
12578,V7 S8,0.0,164
12579,Ti4 Nb4 Sb6 O28,0.0,15
12580,Zn8 H64 C16 N72 O28,3.8268,18
12581,Sr1 In2 Cu2,0.0,139
12582,Sr4 Y2 Cu4 Bi4 O16,0.0,66
12583,Sc1 Co2 Ge1,0.0,225
12584,Sb2 H1 F13,0.0,2
12585,Sr4 Dy2 Cu4 Bi4 O16,0.0,66
12586,Nd8 Ru4 O20,0.0,62
12587,Mn1 Co3 C1,0.0,221
12588,K2 Li2 Yb4 Mo8 O32,0.0,15
12589,Li24 La12 Sb8 O48,0.0,199
12590,H8 C12 N8 O12,2.7026,14
12591,Mg87 Pd12,0.08079999999999998,216
12592,Ga1 Pd1,0.0,221
12593,Cs4 Sm4 Br12,0.0,62
12594,Fe2 H24 C8 N36 O8,3.5167,14
12595,Co8 B4 O16,0.46799999999999997,62
12596,Ca4 Os4 O12,0.0,62
12597,Ba6 Fe3 Si8 C2 Cl3 O30,0.0,156
12598,Ba4 Sm6 Si6 Se2 O24,0.0,176
12599,Ba8 In8 P12 O48,0.0,198
12600,Al119 Cr16 Fe13,0.06369999999999987,8
12601,Zr1 Nb2 V1 C4,0.0,160
12602,Zn1 Cd1 Se1 S1,0.5913999999999999,156
12603,Zn2 Ga1 Cu1 Se4,0.0,160
12604,Zn1 Ni1 O2,1.4763000000000002,166
12605,Yb3 Ni7 B2,0.0,38
12606,U1 Cr1 Cu1 Si2,0.0,119
12607,V1 Cl2 O1,1.8460999999999999,44
12608,V4 C3,0.0,166
12609,Tm2 Ni2 Ge2,0.0,12
12610,U1 Re1 Si2 Ru1,0.0,119
12611,Ti1 Zn1 Cu2,0.0,123
12612,Ti1 Nb1 N2,0.0,166
12613,Tm4 Al4 Ni4,0.0,38
12614,U2 Cu5 Ni5,0.0,8
12615,Ti4 Al4 Cr4,0.0,38
12616,Ti2 Mn1 Fe1 O6,0.0,146
12617,Th1 U1 Se2,0.0,123
12618,Te1 Pb2 S1,0.8047000000000004,123
12619,Te1 Pd3,0.0,123
12620,Ti1 Fe2 Se4,0.0,8
12621,Th1 Nb4 O12,1.6237,25
12622,Tb1 Sm1 Co4 Ni6,0.0,47
12623,Ta2 Fe1 S4,0.11399999999999988,164
12624,Sr1 Ca1 Mn2 O6,0.0,123
12625,Sm1 Y1 Co4 Ni6,0.0,47
12626,Sm2 Ge2 Pd2,0.0,12
12627,Sm1 Co2 Ni3,0.0,191
12628,Si2 Ni6 W4,0.0,38
12629,Sb1 Pb3,0.0,187
12630,Pu2 O3,0.0,115
12631,Rb2 In1 Ge4 As7,0.0671999999999997,8
12632,Pr2 Ge2 Pd2,0.0,12
12633,Nb6 Bi1 S8,0.0,147
12634,Nd1 Fe3 O6,1.7574999999999998,146
12635,Mo1 Pd1 Ru1 Rh1,0.0,156
12636,Sc16 Ga30 Cu59,0.0,6
12637,Mo3 Cl12,0.0,162
12638,Mn1 In2 Se2 S2,0.0,160
12639,Mn3 F12,0.0,2
12640,Mn2 Cr2 Te4,0.0,164
12641,Mn2 Sb2 Pt1 Au1,0.0,160
12642,Mn6 Ga1 Ge1,0.0,38
12643,Mg1 Ag4,0.0,166
12644,Mn8 Ga6 Cu4,0.0,187
12645,Li1 Ho1 Se2,0.12839999999999963,123
12646,Li1 Zn3,0.0,38
12647,Li1 Ta2 O6,0.0,146
12648,Li2 Co2 Ni2 F12,1.5163,102
12649,Li3 Y4 Ti4 S4 O10,0.0,12
12650,La2 Ti2 N2 O4,0.9424000000000001,74
12651,Li2 Fe1 P2 S6,0.6413000000000002,149
12652,La1 Nd1 Cu1 O4,0.0,107
12653,Li5 Co4 Ni1 O10,0.0,12
12654,La1 Co2 Ni3,0.0,191
12655,K2 Y2 Ta4 O14,2.1037,74
12656,K2 Na10 Te2 O12,0.9787999999999999,15
12657,K1 H8 W1 N2 O3 F3,3.6399,42
12658,Ir1 Pt1,0.0,166
12659,Ho2 Ge2 Pd2,0.0,12
12660,Ho2 Ni2 Ge2,0.0,12
12661,Ho4 Re1 Ge8,0.0,25
12662,Fe3 Pd1,0.0,65
12663,Fe2 Re2 B2,0.0,69
12664,Fe1 Re2 Mo2 S8,0.0,44
12665,Fe1 Ni1,0.0,65
12666,Fe1 Ni3,0.0,166
12667,Ge16 H24 C4 N4 O34,0.6255,4
12668,Dy4 Fe1 Se7,0.0,8
12669,Er2 Ni2 Ge2,0.0,12
12670,Gd2 Fe17 C1,0.0,12
12671,La2 Ti1 Cr1 O6,0.0,148
12672,Co1 Ni1 Pt2,0.0,123
12673,Cu1 H18 Pd1 C4 N4 O11,0.9695,5
12674,Cr1 Co3,0.0,187
12675,Cr1 Fe1,0.0,65
12676,Ce1 Al3 Pt1,0.0,119
12677,Cd3 Si2 Pb3 O10,1.3540999999999999,156
12678,Be3 Zn1 O4,4.264899999999999,121
12679,Ba1 Th1 F6,5.1204,187
12680,Be5 Al4 Fe2,0.0,12
12681,Ba2 Sc1 Ti2 Bi1 O9,2.0711,65
12682,B4 Mo2 Ru2,0.0,26
12683,Al1 Ni6 Pd1,0.0,123
12684,Al1 Cr3 Si1 Mo3,0.0,146
12685,Ag2 Sb2 W2 O14,0.0,74
12686,Na8 Al8 Te16,0.7736000000000001,119
12687,La8 Si8 P24,0.0,61
12688,Al3 Yb1,0.0,221
12689,C1 V1,0.0,225
12690,O6 Sr2 Tb1 Re1,0.0,225
12691,Fe4 Rb2 Te6,0.0,63
12692,Ge6 Ta10,0.0,193
12693,O20 Tb11,0.0,2
12694,O3 Na1 Fe2,0.0,164
12695,Mn3 Ge1,0.0,221
12696,Ti6 In8,0.0,127
12697,Ce2,0.0,194
12698,O12 U4,1.9038,19
12699,Cu2 As4,0.0,58
12700,Pd5 Ce1,0.0,191
12701,Cr2 Sb4,0.0,58
12702,H20 N4 O4 Br4,4.3535,14
12703,H8 C4 N6 S4 Cr1,1.1524999999999999,2
12704,H20 Ni2 Zr12 Sn4,0.0,190
12705,O16 P4 Ti4,0.0,62
12706,O12 Cl4 K4 Cr4,2.7828999999999997,14
12707,O7 Fe1 As2,0.0,5
12708,Sn2 P6 O18,0.0,2
12709,O24 P6 Sn8,0.0,161
12710,C2 Tm1,0.0,139
12711,Mn2 Sb4 Ba2,0.0,139
12712,O24 U8,1.8558000000000003,141
12713,Rh5 Dy1,0.0,191
12714,S10 Cr2 Ba6,0.0,185
12715,Si2 Ru2 Np1,0.0,139
12716,O32 P8 Cr9,0.0,2
12717,O36 P12 Cr4,1.949,2
12718,Li4 O48 P12 Cr8,0.0,142
12719,Cl36 Pr15,0.0,147
12720,Ag4 S2,0.0,64
12721,Gd8 O28 Zr8,2.1069,53
12722,O8 Ti3 Zn2,1.8044000000000002,166
12723,Cu6 Fe12 O24,0.022299999999999542,8
12724,Si2 La1 Pt2,0.0,139
12725,Li1 Ge6 Pr2,0.0,65
12726,O4 Cl12 V4,2.8945,62
12727,O2 Cl8 Mo2,1.7247000000000001,2
12728,O4 V1 Cu3,0.10090000000000021,121
12729,Ni4 O48 P16,0.0,60
12730,Li6 O36 P10 Cr4,0.05979999999999985,2
12731,O6 Ba2 Tb2,0.0,15
12732,Hf1 O2,3.8043000000000005,225
12733,Sb16 Te8 Se8 F80,1.5148,57
12734,Pt4 C4 I8 O4,1.5903,15
12735,K8 S4,2.0512,63
12736,Cu2 Bi4 O8,0.0,108
12737,Sn4 Sb2 S4 I6,0.6246999999999998,63
12738,Cu4 H56 C12 N4 Cl12 O8,0.6228,14
12739,Cr1 Fe2 Se4,0.0,12
12740,Ni2 Pb2,0.0,194
12741,V2 Ni1 Se4,0.0,12
12742,Zn1 Br2,3.2848,166
12743,O6 Ba2 Tb2,0.0,74
12744,Sr4 Cr4 O16,2.8392999999999997,14
12745,Mo2 H4 O8,2.5375,1
12746,K2 H2 C2 O4,4.3194,63
12747,Mg7 Ti1 H16,0.0,225
12748,As6 Pb10 Cl2 O18,2.0202,173
12749,Li2 Sn4 P10 O32,0.0,7
12750,La8 Ag4 Se14,1.5201000000000002,7
12751,Pr8 Ag4 Se14,1.4980999999999995,7
12752,Nd8 Ag4 Se14,1.5042,7
12753,Dy14 Ti10 O41,2.3411999999999997,8
12754,Rb4 Ag16 I20,1.2412,1
12755,K6 Fe24 S26 Cl1,0.0,139
12756,H8 O4,4.749499999999999,9
12757,K4 Na2 Nb2 O4 F8,2.3831,1
12758,I4 F28,1.7231,1
12759,Li26 B72 O3,0.0,1
12760,Ca12 Ga12 Si6 H4 O48,0.39979999999999993,1
12761,Li3 V3 P6 O24,1.353,1
12762,N2 Y2,0.7004999999999999,194
12763,Fe35 O36,1.1300000000000003,1
12764,Sb2 H6 C4 O8 F12,3.1772,9
12765,La14 Mn16 O45,0.0,1
12766,Cr2 P10 O30,0.21760000000000002,11
12767,Fe43 O64,0.7730999999999999,5
12768,Cu8 H20 S2 O24,0.0,7
12769,K2 Sn4 H72 C24 Se12 N6,1.8887,2
12770,Cs2 K2 Na2 Li26 Si8 O32,3.9246000000000003,2
12771,Yb5 Na7 Li4 C12 O37,0.0,8
12772,Na2 Cu1 H4 C4 O10,0.7893000000000001,2
12773,K2 Er2 H2 Se4 O18,0.20720000000000005,2
12774,H32 Se8 N8 O20,3.6460000000000004,19
12775,Zr4 H108 C32 N8 Cl20 O8,3.926,19
12776,V4 H32 C8 N8 O24 F4,3.1361999999999997,14
12777,Cr2 H24 Pd2 N8 O8,2.5521000000000003,141
12778,Dy4 Tm4 O12,4.5264999999999995,62
12779,Li4 Sb4 O12,1.1944999999999997,198
12780,Ba4 Y2 Br14,3.213,15
12781,Ba4 Na4 O6,2.3032000000000004,14
12782,Sm4 U4 O17,0.0,65
12783,Li8 Ag4 F12,1.7102,62
12784,Sr1 Bi5 O9,0.0,1
12785,La2 Bi7 O14,0.0,1
12786,Li4 Cu8 S6,0.6691000000000003,15
12787,Bi4 O3 F7,0.25680000000000014,6
12788,Si2 Bi6 O14,0.0,173
12789,Y4 Tm4 O12,4.582000000000001,62
12790,Pb4 O6,0.13529999999999998,4
12791,Li3 Cu3 P2 O8,0.7068000000000003,1
12792,Li2 Ta2 O6,2.3884,127
12793,Sc4 O6,4.053,148
12794,Gd2 Y2 O4,0.0,194
12795,Ce1 Ti1 O3,0.0,221
12796,Mg4 Cl8 O4,2.5919,14
12797,Na4 Ta4 O12,2.7138999999999998,227
12798,Sn1 Bi1 O4,0.0,119
12799,Sr2 Ca4 I12,3.5536000000000003,15
12800,Al8 O12,4.2446,14
12801,Tb4 La4 O14,0.0,227
12802,Bi2 Sb2 O6,2.1015999999999995,148
12803,Bi4 B6 O18,0.0,174
12804,Zr8 N8 O4,0.0,62
12805,Ag4 Te2 O8,0.0036000000000000476,1
12806,Na2 Sb6 O16,0.2807000000000004,72
12807,Li4 Lu2 P2 C2 O14,4.8748,11
12808,Tb4 Er4 O12,4.5065,62
12809,Li3 Nb6 O11,0.0,12
12810,Tm4 B6 O15,5.0617,146
12811,Nb2 P2 H2 O10,0.13580000000000014,2
12812,Li4 Nb1 Te3 O12,0.0,3
12813,Cu1 Te4 O12,0.0,1
12814,Li4 Ti3 Nb1 O8,0.0,12
12815,Li2 B2 Sb2 O6,0.4794999999999998,2
12816,Li8 Sn4 P16 O48,4.0198,14
12817,Li4 Cu4 P4 O16,0.16220000000000012,33
12818,Li4 Sn4 P12 O36,3.9269,62
12819,Li2 Sn8 P14 O48,0.3184,2
12820,Yb4 K4 O6,2.2465,14
12821,Li4 Cu3 F10,0.0,2
12822,Li6 Ti4 P6 O24,0.3720000000000008,15
12823,Li3 Cu9 C9 O27,0.0,1
12824,Ag4 Hg4,0.0,198
12825,K4 Al8 P8 H16 O44,0.7236000000000001,19
12826,Li8 Ag4 F20,0.7961999999999998,14
12827,H42 C12 N4 Cl6,5.3657,4
12828,Li12 Sb4 P8 O32,3.3310999999999997,14
12829,Li9 Sb3 P6 O24,3.1144000000000003,146
12830,Li12 Bi8 P12 O48,3.5359000000000003,15
12831,Li24 Ag12 F48,0.0,33
12832,Li4 Fe4 B8 O20,2.0450000000000004,14
12833,V4 I4 O16,1.0608,12
12834,Li8 V8 P8 O32,2.5249,61
12835,Li6 V1 Sb3 P6 O24,1.6104999999999996,1
12836,Li16 Cr8 Si8 O40,0.2587999999999999,14
12837,Li8 Fe4 P4 O20,2.5086,26
12838,Li12 Ni12 P12 O48,2.8639,14
12839,Li4 Ti4 Co2 O12,2.2921,64
12840,Mn3 Co1 P6 O24,0.0,146
12841,Li4 Ti3 Cu3 W2 O16,0.0,8
12842,Li4 Cr2 Si8 O22,0.9435,15
12843,Li4 Co8 P12 O48,0.0,4
12844,Li3 Mn3 Si1 O8,0.9150000000000005,10
12845,Li4 Mn4 C4 O16,1.2789,14
12846,Li24 Ni24 P24 O96,3.4608,170
12847,Li3 V7 O12,1.0818999999999996,5
12848,Nb4 O4 F12,3.9131,76
12849,Li4 La3 Nb12 O36,0.0,12
12850,Li4 V11 O22,0.8645999999999998,1
12851,Li4 V6 P10 O36,1.0574,1
12852,Li4 Cr2 Si4 O12,2.4339,15
12853,Li4 Fe4 P16 O48,2.3914,14
12854,Fe3 Ni3 P6 O24,0.0,146
12855,Li4 Fe1 Si2 O8,0.23229999999999995,2
12856,Li4 Fe2 Si8 O22,0.0,15
12857,Li12 Fe12 Si6 O36,2.2232,1
12858,Li4 V4 F20,2.0398,64
12859,Li3 Ni5 O10,0.22529999999999983,2
12860,Li12 Co12 Si12 O48,1.4868000000000001,14
12861,Fe8 O6 F10,1.2359000000000002,7
12862,Fe8 O10 F6,0.06929999999999992,7
12863,Li4 Co3 Ni2 Sb3 O16,0.0,8
12864,Fe12 O12 F12,0.0,6
12865,Fe2 O3 F1,0.0,38
12866,Li2 V2 P8 O24,2.1908000000000003,4
12867,Li4 Ni2 C4 O12,2.9454,43
12868,Li4 Fe8 C8 O28,1.5354999999999999,14
12869,Cr12 P16 O60,0.0,33
12870,Li2 V2 P2 O10,1.668,12
12871,Li2 Co2 Si2 O8,1.3329,1
12872,Li1 Mn2 C4 O12,0.7192000000000001,1
12873,Li4 V4 P8 O28,0.17749999999999977,11
12874,Li8 Fe5 O10,0.0,2
12875,Li4 P12 W8 O48,0.9246000000000003,57
12876,Li2 Mn4 C8 O24,0.23649999999999993,4
12877,Li17 Co8 O18,0.9237,1
12878,Li4 V4 P8 O28,1.9781999999999997,1
12879,Li8 V8 P8 O36,1.7252999999999998,62
12880,Li3 Ti3 Mn9 O24,0.6014000000000002,2
12881,Li18 Fe4 O16,0.0,7
12882,Li2 Mn2 C3 O9,4.0204,38
12883,Li9 Ti6 Mn15 O36,0.5962000000000001,1
12884,Li16 Mn2 O8 F4,2.4668,36
12885,Li5 Ti1 V3 O8,0.0,1
12886,Li3 Co13 O5 F19,2.2250000000000005,1
12887,Mn4 O6 F2,0.0,12
12888,Li12 Ti6 Mn12 O36,1.0896000000000003,14
12889,Li4 V2 O4 F4,1.9796999999999998,13
12890,Li13 Mn3 Nb2 O16,1.0312999999999999,8
12891,Li4 V4 O4 F12,1.6839,30
12892,V4 O2 F14,1.7909000000000002,7
12893,K8 Li4 V4 P4 O24,2.3985000000000003,14
12894,V4 O8 F4,1.7622999999999998,14
12895,Li7 Mn1 O3 F3,3.0122,1
12896,K2 Co2 O4,0.5055,12
12897,Li3 Fe3 F9,3.0657,1
12898,Li12 V8 O16 F8,0.9678000000000002,1
12899,Mn4 Te1 O8,0.20089999999999986,12
12900,Li4 Cr1 Ni5 P6 O24,0.0,1
12901,Li6 Co4 Si6 O20,0.7240999999999997,1
12902,Li4 V3 Co1 O10,0.0,5
12903,Li2 Fe4 O8,0.0,1
12904,Li4 Mn4 F12,2.7119999999999997,11
12905,Li8 Mn16 O4 F32,2.1717999999999997,18
12906,Li8 Mn20 F68,0.1835,63
12907,Li5 Mn3 Cr1 P4 O16,0.2708000000000004,1
12908,Fe4 O3 F5,1.483,38
12909,Li1 Mn7 O9 F3,0.09240000000000004,146
12910,Li12 Ti8 V12 O48,0.9330999999999998,14
12911,Li8 V8 F32,1.8681999999999999,1
12912,Mn1 Cr3 Te2 P6 O24,0.0,146
12913,Cr8 O8 F32,2.3223,14
12914,Li4 Mn2 O4 F2,0.8740000000000001,9
12915,Li3 Ni2 C4 O12,0.0,1
12916,Li8 V8 O8 F16,1.6168000000000002,1
12917,Li2 V6 O10 F6,0.7426000000000001,6
12918,Li4 V2 Co2 O10,0.6293,129
12919,Li4 Cr3 Fe1 O8,2.1058000000000003,166
12920,Co3 Sb1 O8,0.0,166
12921,Li2 V6 F20,1.7610000000000001,7
12922,Li4 Co8 O2 F16,2.7489999999999997,2
12923,Fe4 P4 O16,2.5497,7
12924,Li20 V2 Si4 O20,0.9504999999999999,1
12925,Mn12 O5 F19,0.0,1
12926,Li2 Ti2 Si6 O16,0.5985999999999994,2
12927,Ca2 Bi10 O17,1.6668999999999996,8
12928,Li4 Si4 Bi4 O16,3.0152000000000005,33
12929,Bi10 O14 F2,2.4939000000000004,1
12930,Li12 Cr3 P9 O36,1.3127000000000002,1
12931,Li16 Ni16 P16 O64,3.4939,14
12932,Li4 Cr10 Si24 O60,1.6612,1
12933,Co4 B4 O12,1.0667,9
12934,Li4 Fe4 P4 O16,3.6723,95
12935,Al8 V8 O24,1.0816999999999997,1
12936,Li4 Mn8 O12 F4,0.5389000000000004,33
12937,Li4 Co2 Sn2 P4 O16,1.6075,11
12938,Li4 Mn3 V2 Co3 O16,0.0602999999999998,8
12939,Li5 V1 O3 F2,1.6471,1
12940,Li2 V2 F8,2.2904,12
12941,Sn16 P8 O36,2.2198,62
12942,Ti20 P4 O44,0.0,14
12943,Li12 Mn2 O6 F6,2.1441,1
12944,Li6 V3 Si3 O12,1.255,1
12945,Li2 Cr4 P4 O16,1.0178000000000003,2
12946,Li4 Mn4 O4 F8,0.6405,62
12947,Li4 Mn2 O2 F6,0.8163,12