Index,Composition,bandgap,spgN
3397,Zn2 Sn4 O8,1.2281999999999993,74
3398,Zn2 Sb4 O8,2.1881999999999997,1
3399,Zn2 Cu4 O8,0.0472999999999999,2
3400,Zn8 Bi8 Sb8 O40,1.3321999999999998,61
3401,Zn8 Sn8 Bi8 O40,0.0,61
3402,Mg8 Ti8 Bi8 O40,0.0,61
3403,Zn2 Mo4 O8,0.3429000000000002,1
3404,Mg8 Ta16 Co8 O56,2.8317,2
3405,Ca8 Cr16 Co8 O56,0.0,14
3406,Mg1 Ti4 Cu3 O12,0.0,204
3407,Ca8 Bi8 W8 O40,1.5585999999999998,61
3408,Cr4 As8 O28,0.0,14
3409,Fe4 As8 O28,0.0,14
3410,Zn3 Fe4 W6 O24,1.5262000000000002,2
3411,Ta4 P4 O20,3.2243,43
3412,Ca2 Sb4 P4 O20,0.0,43
3413,Ca4 Si16 Ni4 O40,3.3088,130
3414,Zn4 Sn4 Bi4 O20,0.044299999999999784,14
3415,La2 V2 Zn2 Fe2 O12,0.7334999999999994,7
3416,La2 Mg2 Fe2 Sn2 O12,2.1909,7
3417,Mg1 Cr4 O8,0.0,166
3418,Mn4 Zn4 Bi4 O20,0.7473999999999998,14
3419,Pr2 Ti4 O12,0.0,31
3420,Ba6 Ti6 Al3 F33,0.10469999999999935,145
3421,Mg2 Ag4 O8,0.0,160
3422,Y4 Co13 Si2 Sb2 O28,1.5925000000000002,12
3423,Mg4 Ti8 P8 O36,0.0,2
3424,La2 Ti2 Zn2 Cr2 O12,2.3718999999999992,7
3425,Y1 Cu3 Sn4 O12,0.0,71
3426,Ca4 Cu4 O8,0.03200000000000003,2
3427,Ba2 Tl2 Zn2 Cu3 O10,0.0,1
3428,Sr2 Sn2 P4 O16,2.11,2
3429,Zn1 Sb4 O8,1.8436000000000003,1
3430,Zn4 Fe4 O8,0.49660000000000015,2
3431,Ba2 Ca2 Tl2 Fe3 O10,0.0,1
3432,Cr10 Te6 O36,0.3494999999999999,5
3433,Ba2 Tl2 Fe3 O10,0.0,1
3434,Mg8 Fe10 Te6 O36,0.5022000000000002,5
3435,Mg2 Ni2 P2 O10,0.053999999999999826,1
3436,Ti2 Nb4 Zn4 O16,0.0,1
3437,Sr4 Y4 Cr4 O14,0.9943,46
3438,Y1 Co1 W2 O8,0.17499999999999982,1
3439,Ca6 Mn12 O24,0.02760000000000007,1
3440,Bi2 F10,0.4034,63
3441,Ca4 Y2 Mn2 O10,0.2881,9
3442,Ca4 Y2 Co2 O10,0.6059999999999999,1
3443,Ca4 Y2 Cr2 O10,2.2051,9
3444,Mg2 Cr4 O8,2.0717999999999996,63
3445,Zn2 Ni4 O8,0.0,63
3446,Mg2 Bi4 O8,1.7151000000000005,74
3447,Mg2 Ni6 P6 O26,0.0,11
3448,Ca1 Bi4 O8,0.5339999999999998,8
3449,Sr4 Ga2 Sb4 O14,0.0,1
3450,Mg4 Cr8 O16,2.4536,62
3451,Ba2 Y1 V3 O7,0.0,25
3452,Zn2 Fe2 Si2 O10,0.0,1
3453,Ho2 Ti4 Zn2 O12,0.0,31
3454,Mg2 Co4 O8,0.0,160
3455,Mg1,0.0,225
3456,Rb2 Pd1,0.8564,12
3457,Te4,0.0,18
3458,O4,0.0,194
3459,V1 Pb1 O3,0.0,221
3460,Sr4 Ca4 Co8 O24,0.0,123
3461,Ba12 Sr20 Ti28 Mn4 O80,0.0,1
3462,La28 Sm4 Cr8 Fe24 O80,0.8217999999999996,1
3463,La6 Sm2 V6 Cr2 O24,0.8855999999999993,28
3464,Sm4 Fe4 O10,0.9230999999999998,46
3465,La6 Sm2 Cr3 Fe5 O24,0.8417000000000003,6
3466,La7 Sm1 V7 Cr1 O24,0.7699999999999996,160
3467,Yb2 Te4,0.0,129
3468,U2 Mo2 C3,0.0,12
3469,Ba2 Co1 Ag2 Se2 O2,0.0,139
3470,Sr2 Mn2 P2 F2,0.0,129
3471,Er2 Ni4 Sb4,0.0,129
3472,Na1 Ti2 H1 O5,0.0,1
3473,Te4 Mo2 W2 S4,0.0,156
3474,Ti12 N16,1.7576999999999998,159
3475,Ce2 Se4,0.8099000000000001,141
3476,Ce6 Se12,0.0,2
3477,Zn3 Cr1 S4,0.0,215
3478,Zn2 Ga4 S8,1.4322000000000004,227
3479,Sr3 Mg15,0.0,155
3480,Sr8 Mg4,9.999999999998899e-05,8
3481,Sr4 Mg8,0.0,12
3482,Sr4 Mg8,0.0,63
3483,Mg6 Ti6,0.0,11
3484,Mg16 Ti8,0.0,11
3485,Y2 Mg4,0.0,164
3486,Y12 Mg4,0.0,225
3487,Y2 Mg4,0.0,189
3488,Mg4 Zn8,0.0,63
3489,Mg12 Zr4,0.0,225
3490,Mg6 Ti6,0.0,8
3491,Mg4 Sn2,0.0,189
3492,Y8 Mg4,0.0,38
3493,Mg5 Sb1,0.0,189
3494,Mg4 Ga2,0.0,164
3495,Mg2 Sb2,0.0,59
3496,Mg1 Cu2 As1 O7,0.23460000000000014,1
3497,Cu4 I2 O6,0.0,11
3498,Mg30 Nb1 Sn1 O32,0.32120000000000104,123
3499,Ba8 V4 Fe4 O24,0.6584999999999996,194
3500,Zn3 Ga2 S6,0.0,156
3501,Bi8,0.0,10
3502,Dy2 Mn4 O8,0.0,12
3503,Mg30 Bi1 B1 O32,1.8728999999999996,123
3504,Mg30 Mn1 C1 O32,2.3099,123
3505,Ca1 Ce1 Mg14,0.0,38
3506,Na1 Ca1 Mg6,0.0,38
3507,Y1 Mg6 Cu1,0.0,38
3508,Ce1 Mg6 Cu1,0.0,38
3509,K2 Na6 V5 Mo3 O24,0.0,3
3510,Sm1 Ni1 O3,0.0,221
3511,Ba1 Mg6 Ga1,0.0,38
3512,Ca8 Sn4 S16,1.8089,14
3513,Ca2 Sn8 S18,0.7426000000000004,59
3514,Li9 Mn2 Co5 O16,0.0,6
3515,Li9 Mn2 Co5 O16,0.0,6
3516,Li9 Mn2 Co5 O16,0.0,6
3517,Li9 Mn2 Co5 O16,0.0,6
3518,Li9 Mn2 Co5 O16,0.0,6
3519,Li9 Mn2 Co5 O16,0.0,6
3520,Li9 Mn2 Co5 O16,0.0,8
3521,Li9 Mn2 Co5 O16,0.0,8
3522,Li9 Mn2 Co5 O16,0.0,12
3523,Li9 Mn2 Co5 O16,0.0,12
3524,Li9 Mn2 Co5 O16,0.0,12
3525,Li9 Mn2 Co5 O16,0.0,8
3526,La2 F6,5.2027,59
3527,Pr2 Sm2 O4,0.0,141
3528,Ba2 Ti2 Fe2 As4 O1,0.0,139
3529,Sr1 Tb2 Sc2 O7,3.5172,139
3530,Co2 S2 O10,0.0,15
3531,K4 Pd2 O8,0.2695,14
3532,Fe2 Se2 O10,0.2905,15
3533,La2 Ta2 O9,0.2240000000000002,12
3534,Cr4 Fe2 O8,1.3571,63
3535,Ag2 Mo6 Se6,0.18469999999999942,176
3536,V1 Mo6 Se8,0.0,2
3537,V4 Cu4 O12,0.0,204
3538,Rb2 Al1 Au1 F6,1.4005999999999998,225
3539,K2 In1 As1 Br6,0.037699999999999845,225
3540,Rb2 Na1 Ta1 Br6,0.0,225
3541,K2 Rb1 Sb1 I6,2.3768000000000002,225
3542,K2 Rb1 Pr1 I6,3.1256000000000004,225
3543,K2 Rb1 Pr1 Br6,3.6885,225
3544,K2 Rb1 Bi1 I6,2.6959,225
3545,K2 Na1 Mo1 I6,1.0858999999999999,225
3546,K2 Pr1 Cu1 I6,1.8073,225
3547,Na2 In1 Cu1 Cl6,0.0,225
3548,K2 Tl1 Sb1 F6,2.3838,225
3549,Na2 Li1 Y1 Cl6,3.9688,225
3550,Na2 Tm1 Ag1 Cl6,2.8286000000000002,225
3551,Na2 Sc1 Ag1 Cl6,3.0915,225
3552,Na2 Sc1 Cu1 Cl6,1.811,225
3553,Na2 In1 Ag1 Cl6,0.9839,225
3554,Na2 Li1 Bi1 Cl6,3.5061,225
3555,Cs1 Rb2 Al1 Br6,3.3374,225
3556,Rb2 Al1 Au1 I6,0.0,225
3557,Na3 Lu1 Cl6,3.9147,225
3558,K2 Al1 Hg1 F6,0.0,225
3559,Cs1 K2 Pd1 F6,0.0,225
3560,Cs1 K2 In1 Cl6,3.6959,225
3561,Cs2 Rb1 Au1 Br6,0.0,225
3562,Cs2 Sc1 Au1 F6,1.8506,225
3563,Cs2 Al1 Hg1 Cl6,0.0,225
3564,Cs2 Li1 Au1 Cl6,0.0,225
3565,Cs2 Al1 Cu1 Cl6,0.657,225
3566,Rb2 Ga1 Hg1 Cl6,0.0,225
3567,Cs2 Ce1 Ag1 F6,0.0,225
3568,Rb2 Al1 Hg1 Br6,0.0,225
3569,Rb3 Ga1 I6,0.976,225
3570,K1 Rb2 Tl1 I6,0.4749,225
3571,Rb2 Li1 Au1 Cl6,0.0,225
3572,Rb2 Na1 Au1 Cl6,0.0,225
3573,Mg2 Fe2 F8,3.6963,1
3574,Li17 La12 Zr8 O48,0.0,82
3575,Ti3 Au1,0.0,221
3576,Fe4 Np2,0.0,227
3577,Sr1 Nb2 Cu1 O7,0.0,119
3578,Ca2 Ti2 Cu2 O8,0.0,129
3579,Ho2 Mn4 O8,0.0,12
3580,Sr2 Cu1 Te1 O2,0.0,123
3581,Rb2 Pb2 F6,3.4196,46
3582,Na8 Pt1 O6,0.0,1
3583,Li8 Mn2 Co4 O14,0.0,8
3584,Li8 Mn2 Co4 O14,0.08509999999999973,2
3585,Li8 Mn6 O14,0.0,12
3586,Li8 Mn2 Co4 O14,0.1612,2
3587,Li8 Mn2 Co4 O14,0.19840000000000035,2
3588,Li8 Mn2 Co4 O14,0.1214000000000004,2
3589,Li8 Mn2 Co4 O14,0.21650000000000036,2
3590,Li8 Mn2 Co4 O14,0.08089999999999975,1
3591,Li8 Mn2 Co4 O14,0.0,1
3592,Li8 Mn2 Co4 O14,0.0,1
3593,Li8 Mn2 Co4 O14,0.14329999999999998,1
3594,Li8 Mn2 Co4 O14,0.024699999999999722,1
3595,Li8 Mn2 Co4 O14,0.07939999999999969,1
3596,Li7 Mn2 Co3 O12,0.11829999999999963,1
3597,Li8 Mn2 Co4 O14,0.14470000000000027,1
3598,Li8 Mn2 Co4 O14,0.09310000000000018,1
3599,Li8 Mn2 Co4 O14,0.0,1
3600,Li8 Mn2 Co4 O14,0.0,8
3601,Li7 Mn2 Co3 O12,0.0,2
3602,Li7 Mn2 Co3 O12,0.05420000000000025,2
3603,Li7 Mn2 Co3 O12,0.19309999999999983,2
3604,Li7 Mn2 Co3 O12,0.0,2
3605,Li7 Mn2 Co3 O12,0.17379999999999995,2
3606,Li7 Mn2 Co3 O12,0.06899999999999995,1
3607,Li7 Mn2 Co3 O12,0.0,1
3608,Li7 Mn2 Co3 O12,0.0,1
3609,Li7 Mn2 Co3 O12,0.07620000000000005,1
3610,Li7 Mn2 Co3 O12,0.10090000000000021,1
3611,Li7 Mn2 Co3 O12,0.0,1
3612,Li7 Mn2 Co3 O12,0.08590000000000009,1
3613,Li9 Mn2 Co5 O16,0.09640000000000004,2
3614,Li9 Mn2 Co5 O16,0.07509999999999994,2
3615,Li9 Mn2 Co5 O16,0.0,2
3616,Li9 Mn2 Co5 O16,0.0,2
3617,Li9 Mn2 Co5 O16,0.16749999999999998,2
3618,Li9 Mn2 Co5 O16,0.0607000000000002,2
3619,Li9 Mn2 Co5 O16,0.18900000000000006,2
3620,Li9 Mn2 Co5 O16,0.14359999999999973,2
3621,Li9 Mn2 Co5 O16,0.0,1
3622,Cu2 Cd4 Er2,0.0,63
3623,Li9 Mn2 Co5 O16,0.12769999999999992,1
3624,Li9 Mn2 Co5 O16,0.1256999999999997,1
3625,Li9 Mn2 Co5 O16,0.0034000000000000696,1
3626,Li9 Mn2 Co5 O16,0.0,1
3627,Li9 Mn2 Co5 O16,0.0,1
3628,Li9 Mn2 Co5 O16,0.1701999999999999,1
3629,Li9 Mn2 Co5 O16,0.17289999999999983,1
3630,Li9 Mn2 Co5 O16,0.057800000000000296,1
3631,Li9 Mn2 Co5 O16,0.0,1
3632,Li9 Mn2 Co5 O16,0.17180000000000017,1
3633,Li9 Mn2 Co5 O16,0.0,1
3634,Li9 Mn2 Co5 O16,0.0,1
3635,Li9 Mn2 Co5 O16,0.0,1
3636,Li9 Mn2 Co5 O16,0.2117,1
3637,Li9 Mn2 Co5 O16,0.0,1
3638,Li6 Co5 O10,0.13260000000000005,1
3639,Li5 Co8 O16,0.0,1
3640,Li8 Ti8 V8 Cr2 O36,0.0,55
3641,Li4 Mn1 Co5 O12,0.7336999999999998,12
3642,Li2 Ti1 Cu1 O4,0.0,10
3643,Li3 Co4 O8,0.0,1
3644,Li10 Fe1 Co9 O20,0.48580000000000023,1
3645,Ge4 N4 O2,0.5551000000000004,12
3646,Fe6 Co3 O18,0.0,5
3647,Cd4 Co8 O16,0.6358999999999999,1
3648,Zn1 Co1 Cu3 Se4,0.0,215
3649,Y8 O12,2.7575999999999996,62
3650,N8 O4,4.7412,62
3651,La4 Ta4 O18,0.20150000000000023,14
3652,K2 Pd1,0.0,123
3653,Na2 Cd2 F6,3.5598,9
3654,I1,0.0,69
3655,K10,0.0,123
3656,Cs1 Mn1 Cu3 Se4,0.0,215
3657,Cr1 Cu3 Hg1 Se4,0.0,215
3658,Hg4 Pb8 Br12 O8,0.026799999999999935,41
3659,Fe16 H20 O34,1.6478000000000002,1
3660,Ba4 Ho4 Co8 O22,0.14210000000000012,51
3661,Fe8 P4 H8 C4 O28,3.021,14
3662,Ce4 Cu16 Sn4,0.01529999999999987,19
3663,Ba3 Ac1,0.0,139
3664,Ba3 Li1,0.0,139
3665,Ca3 Sm1,0.0,225
3666,Co3 Os1,0.0,139
3667,Co3 Cu1,0.0,139
3668,Ce2 Mg1 Cd1,0.0,225
3669,Co6 Ru2,0.0,194
3670,Ce1 Nd1 Zn2,0.0,225
3671,Gd3 Zn1,0.0,221
3672,Ho3 Bi1,0.0,221
3673,Hf6 Th2,0.0,194
3674,Hg6 Pd2,0.0,194
3675,Ge2 Rh6,0.0,194
3676,K3 Li1,0.0,225
3677,K3 Li1,0.0,139
3678,Mg16 Al12 O1,0.0,217
3679,Mg1 Bi5,0.0,38
3680,Mg1 Bi5,0.0,189
3681,Mn3 Sb1,0.0,225
3682,Tb3 Bi1,0.0,139
3683,Tc3 Mo1,0.0,139
3684,Th3 Zn1,0.0,139
3685,Tc1 Pt1,0.0,187
3686,Yb1 Sn1 O3,1.7044999999999995,221
3687,Tl3 Zn1,0.0,139
3688,Yb1 F3,0.0,139
3689,Tm2 Bi6,0.0,194
3690,Yb6 Dy2,0.0,194
3691,Yb6 Ho2,0.0,194
3692,Yb10 Si6,0.025700000000000056,63
3693,Ca4 Mn4 O12,0.9291999999999998,194
3694,In10 Sb6,0.0,140
3695,Zn1 H8 N10,3.9461,2
3696,Sr4 Sc2 Co2 P2 O6,0.0,129
3697,Cr2 Cu4 O12,0.0,63
3698,Co2 N12 Cl4 O4,1.0253999999999999,15
3699,Na5 V2 P3 O15,0.0,8
3700,Nd4 C4 O16,0.0,62
3701,Mg6 Ti1 H16,0.0,225
3702,Co2 N12 Cl4 O4,1.0423999999999998,15
3703,Hg4 Te4 O12 F4,0.8338999999999999,29
3704,Nd2 Fe15 Co2 H3,0.0,166
3705,Tl4 V2 S4 O20,0.5901,4
3706,Sm2 I6 O20,0.8499999999999999,4
3707,K4 Zn4 Br12 O8,1.8938,14
3708,Ce8 Cr2 S14,0.0,4
3709,Pr2 B8 Cl2 O16,0.0,9
3710,Pb12 Br4 O12,0.6349,26
3711,Rb2 I6 O18,0.0,2
3712,Cd4 H56 C20 N12 Cl12,3.7521,15
3713,K4 H24 Rh4 N24 O32,2.6609,19
3714,Zr8 H256 C80 I8 N40,3.1473,61
3715,Cu8 C4 O20,0.0013999999999998458,14
3716,Ba8 Fe12 P16 O72,0.0,61
3717,Ca4 Fe8 As8 O40,0.0,66
3718,Ba6 Fe25 S27,0.0,221
3719,P2 H60 W24 C18 N6 O80,3.3257000000000003,148
3720,H112 C38 S6 N16 O30,3.9045,2
3721,Na2 Mn2 H12 C6 S6 N6 O6,3.3829,147
3722,Sm8 Ga16 Se32,0.0,70
3723,K8 Ti4 Si12 O40,0.9457999999999999,19
3724,Al8 Si8 P8 H72 C24 N8 Cl48,3.6074,14
3725,Sc4 P8 N4 O32,1.7386,14
3726,U8 Pb4 Se20,0.0,62
3727,B6 P2 H14 N2 O19,1.0976,2
3728,Cd2 H24 C4 S4 N12 Cl8,3.5303999999999998,14
3729,Sn8 P4 O20,0.6046000000000005,14
3730,Tl8 V8 P8 O48,0.2723,61
3731,Ta12 Cl36,0.0,227
3732,Co2 B20 H46 C26,1.6452999999999998,2
3733,Co4 H48 C4 N20 O24,2.7921,14
3734,Si4 C16 N16 O16,5.6104,14
3735,Mn2 H22 C10 N2 O12,3.3981,9
3736,La4 H64 C16 Cl12 O16,4.2515,14
3737,K4 Sb4 As4 O16 F8,0.0,14
3738,Cu2 H72 S16 N22 O36,1.5704999999999998,122
3739,Si82,1.1437,15
3740,Yb2 Cl6 O26,0.005900000000000016,2
3741,H26 Pt2 C6 N6 Cl4 O2,2.2878,2
3742,K16 Ce4 S16 O72,0.2605,14
3743,Sn4 Hg1 B44 H124 C24 N8 Cl2,2.3542,121
3744,P24 S24 N24 Cl96 O48,3.9804000000000004,14
3745,Y2 B12 O24,0.15810000000000002,161
3746,K6 Al6 O2 F24,0.9787000000000001,59
3747,P16 N28,0.0,14
3748,Sn12 H72 C24 S12,3.0417,96
3749,Ba4 Sb12 O24,0.010800000000000143,14
3750,Sr2 In4 P8 O32,0.0045000000000000595,20
3751,Sn8 Ge2 H72 C24,3.3693,2
3752,Se6 N4 O24,1.6496,15
3753,Ce3 Ag3 S6 O27,0.05590000000000006,5
3754,Si8 B8 H148 C48 N20,3.2528,14
3755,Co12 S8 O48,0.04029999999999995,57
3756,Zn4 H36 C16 N4 O24,4.4125,62
3757,Sn4 H48 C24 N8 O16,4.2371,15
3758,Si232,1.0106999999999995,205
3759,Y8 Ni2 B26,0.0,128
3760,B4 S16 N16 F16,0.41129999999999994,14
3761,Zn4 Fe5 P6 O28,0.7918000000000001,2
3762,Ca4 Si4 B4 H4 O20,4.7658,14
3763,Si24 Bi4 H216 C72 N16 Cl4,2.3609999999999998,15
3764,B8 H16 O16,4.8011,14
3765,Na16 V8 O32,0.0,14
3766,P2 W24 O80,0.0,224
3767,Li8 B8 H48 N8,5.707,19
3768,Ca8 Si6 O22,0.5254000000000001,2
3769,Li12 B32 O60,0.042200000000000015,190
3770,U4 S4 O24,1.4790999999999999,62
3771,Li8 H32 S8 N8 O40,5.742100000000001,61
3772,Pu2 H48 C16 N4 Cl8 O4,0.11140000000000005,136
3773,Ga24 P24 H48 C8 N8 O104,0.5217,61
3774,Cs4 H24 Rh4 N24 O32,2.7948000000000004,14
3775,B2 H34 C12 N2 Cl2,5.0641,4
3776,Co2 B20 H42 C24,1.7285,2
3777,Ce4 Rh4 C8,0.0,76
3778,Dy2 Cu4 Sn5,0.0,107
3779,K3 Sm1 F6,4.8019,139
3780,Cs2 Tm2 Br6,0.0,127
3781,U4 Ru2,0.0,12
3782,La1 Mg2 Ag1,0.0,225
3783,Nd2 Co1 O4,0.0,139
3784,Hf1 Fe1 F6,0.0,225
3785,Li2 Sn1 Pd1,0.0,225
3786,Yb1 Eu2 Ta1 O6,0.0,225
3787,Y1 Ni2 B2,0.0,139
3788,Sr2 Pr1 Ta1 O6,3.3705000000000007,225
3789,Yb4 Pr4 O12,0.0,62
3790,Yb4 Ce4 O12,1.7752999999999997,62
3791,U2 Cu2 Si2,0.0,194
3792,U4 Te4 Se4,0.0,62
3793,Ti10 Mn6,0.0,193
3794,Sr2 Pr1 Cu2 Bi2 O8,0.0,139
3795,Sr2 Y1 Cu2 Bi2 O8,0.0,139
3796,Sr2 V10 Ni2 O22,0.1554000000000002,194
3797,Sr2 Dy1 Cu2 Bi2 O8,0.0,139
3798,Si2 P4 Rh1,0.0,5
3799,Sr2 Er1 Cu2 Bi2 O8,0.0,139
3800,Sm3 Ni9 Sn6,0.0,191
3801,Rb4 Sm8 I20,0.0,14
3802,Rb4 Dy4 I12,0.0,62
3803,Rb8 Pb4 Cl20,0.0,14
3804,Ni1 H6 Cl2,0.8190999999999999,12
3805,Pr8 Cr2 S14,0.1849999999999996,173
3806,Na6 Sc4 Mo6 O24,1.3487999999999998,15
3807,Nd8 Cr2 S14,0.19099999999999984,173
3808,Li4 In8,0.0,227
3809,Na6 Co6 B6 P12 H24 O66,0.033499999999999974,178
3810,Li1 Si1 Ag2,0.0,216
3811,Li3 Ti3 Co3 F18,0.18930000000000025,150
3812,Mn2 P2 N2 O10,1.1172,31
3813,K4 Sm8 I20,0.0,14
3814,Li4 Mg12 W12 O48,0.0,62
3815,La10 Fe2 Ge6,0.0,193
3816,Na4 Ca2 Zr4 Si20 H2 O52,1.5298999999999998,9
3817,Dy3 Ni9 Sn6,0.0,191
3818,Cu3 H30 Cl9 O54,0.04590000000000005,152
3819,Ca4 Sc2 Re2 O12,0.0,34
3820,C40 Cl32,2.2723,14
3821,Ca2 H16 C12 S4 N4 O16,2.6114,2
3822,Ba8 Pt2,0.0,227
3823,Ba4 Ga22 Sn1,0.0,217
3824,Ba2 Mn5 O10,0.0,12
3825,Ag2 Mo2 O8,0.0,82
3826,Zn1 Ni1,0.0,12
3827,Zn1 Fe4 Ni1 O8,0.0,216
3828,Zr4 Ti6 Sn6,0.0,193
3829,Yb2 Fe3 Cu1,0.0,166
3830,Yb4 Cd1 S7,1.5252,8
3831,Y1 Ti1 Fe11 N1,0.0,44
3832,Y2 Mn3 Co1,0.0,166
3833,Y4 W2 O12,2.6772000000000005,59
3834,Y3 Ga6 Ni9,0.0,187
3835,Y4 Fe4 Co12 B3 C1,0.0,187
3836,V4 C3,0.0,160
3837,V2 C1 N1,0.0,166
3838,Ti1 V1,0.0,65
3839,V4 Fe2 Sn2,0.0,38
3840,U2 Si7 Ni2,0.0,38
3841,Ti1 Al1 V2,0.0,35
3842,Ti16 Cu8 O4,0.0,216
3843,Tb1 Ti1 Fe11 N1,0.0,44
3844,Ti4 Fe2 B4 Ru2 Rh8,0.0,10
3845,Th2 Fe5 Co5,0.0,25
3846,Tb2 Fe2 Cu2,0.0,74
3847,Tb1 C2,0.0,44
3848,Tb2 Fe1 Si4,0.0,38
3849,Zr2 Ni2 H58 C24 N4 O41,3.7802,5
3850,Ta1 Ti1 W1 C3,0.0,156
3851,Ta1 Ti1 N2,0.0,123
3852,Ta4 Ti4 Co4,0.0,38
3853,Ta2 Ag2 W2 O14,0.0,74
3854,Sr1 Eu1 Co2 O6,0.0,123
3855,Sr4 Ca1 Cr5 O15,0.0,166
3856,Sr1 Gd2 Fe3 O9,0.0,164
3857,Sr4 Cu2 Bi4 O13,0.007600000000000051,5
3858,Sn1 Sb1,0.0,160
3859,Re3 Mo1,0.0,187
3860,Sm4 Mn4 Ge4,0.0,62
3861,Re1 Mo1,0.0,65
3862,Sb1 Pb3 S4,0.0,1
3863,Rb4 Mo2 O4 F8,2.2504,15
3864,Rb5 Al1 Mo4 O16,2.0336,1
3865,Nd1 Zr3 Mn8,0.0,8
3866,Ni2 H14 C6 N2 O12,4.1379,5
3867,Nb4 Ge1 S8,0.0,156
3868,Nb3 B4 W3,0.0,38
3869,Nb3 In1,0.0,65
3870,Pb3 Br1 F5,3.2712000000000003,8
3871,Na8 Pt1 O6,0.0,75
3872,Na1 Nb2 O4,0.0,164
3873,Na6 W2 N2 O6,3.2001,31
3874,Na8 Be8 Si24 O64,1.0028000000000001,33
3875,Pb10 W6 O18 F20,1.0983000000000003,1
3876,Na2 Nb2 W2 O13,0.2384,44
3877,Mo1 Pd1,0.0,187
3878,Mo6 Ir1 Ru1,0.0,200
3879,Mn1 Ir1,0.0,166
3880,Mn1 Cr3 Te4,0.0,10
3881,Mn3 Sb2,0.0,187
3882,Mn4 In1 Sb3,0.0,187
3883,Mn1 Fe1 Sn4,0.0,97
3884,Pb30 C18 O72,0.0,1
3885,Mn1 Cr3 Te4,0.0,12
3886,Mn7 Co1 Sb4,0.0,115
3887,Mg4 Al1 Zn11,0.0,38
3888,Lu1 Mn6 Ga6,0.0,69
3889,Li7 Mn1 As4,0.14739999999999998,111
3890,Li2 Mn2 Co1 O8,0.0029000000000000137,12
3891,La1 Pd1 O4,0.0,166
3892,La3 Mg2 W2 O12,0.0,115
3893,K1 Nb1 O2 F1,0.0,123
3894,K2 Si10 B2 O26,0.32280000000000003,31
3895,In2 Ag1 Te3 Cl1,0.0,123
3896,In1 Ag1 Te2,0.0,166
3897,Ho1 Ti1 Fe11 N1,0.0,44
3898,In2 Te1 As1,0.0,160
3899,Ho2 Fe2 Cu2,0.0,74
3900,In2 Te1 As1,0.0,115
3901,Ho1 Mn6 Ga6,0.0,69
3902,K12 Mo4 S11 Cl4 O5,2.391,1
3903,Hf3 Al1 Mo8,0.0,160
3904,Hf1 Mo4,0.0,69
3905,In4 H4 Se4 O16,2.9889,33
3906,Fe2 Pd1,0.0,164
3907,K4 H28 Rh4 N24 O34,2.4455,2
3908,Fe3 Pt1,0.0,65
3909,Gd2 Si3 Ni1,0.0,38
3910,Ga1 Fe1,0.0,187
3911,Fe4 Si10,0.0,123
3912,Fe2 Si1,0.0,139
3913,Eu1 Si3 Ni1,0.0,119
3914,Fe3 Cu1 Sn2 S8,0.0,44
3915,Fe3 W5 N8,0.0,187
3916,Dy1 U1 Al4,0.0,216
3917,Dy1 Er1 Mn4,0.0,216
3918,Dy2 Fe2 Cu2,0.0,74
3919,Dy1 Ti1 Fe11 N1,0.0,44
3920,Dy3 Mn3 Ga2 Si1,0.0,174
3921,Dy8 Cr8 S24,0.20709999999999962,58
3922,Dy4 Fe29 Si5,0.0,2
3923,Cr1 W1,0.0,65
3924,Cr1 Ga1 Fe1 Se4,0.0,160
3925,Cr3 Ga1 Fe3 As2,0.0,189
3926,Co3 Pt1,0.0,187
3927,Co2 Si2 H30 N12 O4 F12,1.0628,2
3928,Ce1 Y1,0.0,187
3929,Cs6 K2 Zr4 Si12 O40,0.9792000000000001,4
3930,Cd1 Pt3,0.0,166
3931,Ce3 Sn1 O8,1.0867000000000004,123
3932,Ca1 La1 V1 Fe1 O6,0.0,216
3933,Ca7 Si6 C1 O23,0.010199999999999987,8
3934,Ca2 Bi4 Br4 O6,0.0,129
3935,Ca4 Al4 Si6 O24,0.023600000000000065,13
3936,Ba1 La1 Ti1 Cu1 O6,0.0,216
3937,Ho12 Ge22,0.0,1
3938,Ba4 In2 O7,0.0,107
3939,Ba4 Ce2 Bi1 O12,0.0,2
3940,Ba3 Ti3 Fe3 Bi2 O18,0.0,156
3941,Ba2 Fe4 Bi2 O11,0.0,99
3942,Ba2 Cu3 O6,0.0,5
3943,Al1 Ni2 As1,0.0,187
3944,Al2 P2 H16 C6 Cl6,2.108,4
3945,Al4 Cu4 Ni2,0.0,99
3946,Ag3 Sb1,0.0,187
3947,Er2 Mn4 O8,0.0,12
3948,Ca1 Tb3,0.0,139
3949,Na1 Mn1 Te2,0.0,156
3950,O8 Co4 Ge2,0.0,227
3951,O4 Ni2 Sr2,1.7349999999999999,63
3952,Ge2 Pt2 U1,0.0027999999999996916,139
3953,Mn3 As3 Rh3,0.0,189
3954,In6 Sb6,0.0,63
3955,Mn4 Sb2,0.0,129
3956,N8 Mn4 Ge4,0.21260000000000012,33
3957,Si1 Mn3 Ga2 Dy3,0.0,189
3958,Si2 Co2 Np1,0.0,139
3959,C6 N6 Fe1 Sn2,3.5469999999999997,147
3960,S6 Fe2 U2,0.0,63
3961,O3 Al1 Bi1,1.5859999999999994,221
3962,H24 C16 O32 K8,4.8037,61
3963,O16 Fe2 W4,0.0,15
3964,O14 P4 Sb2,0.0,2
3965,Na5 Zr2 F13,5.553599999999999,12
3966,O8 Na4 S4,2.3189,13
3967,B4 F8,4.8995999999999995,14
3968,Cl2 La2,0.0,166
3969,Na2 S4 Fe2,0.0,23
3970,Ag4 Li6 Si6,0.0,134
3971,C8 N12 Ca2,4.552300000000001,15
3972,Sr3 In1,0.0,225
3973,O32 P8 Cr6,0.0,4
3974,O32 P8 Fe6,0.0528,4
3975,B1 Pd3 Ho1,0.0,221
3976,Tl2 Bi2 S4,0.0,141
3977,Li8 P4 S12,0.0,62
3978,F4 Nb4 O8,1.6515,13
3979,Ba1 La1 O6 Ta1 Zn1,2.5384,216
3980,Si2 Cr2 Y1,0.0,139
3981,Li2 Mn2 P2,0.0,129
3982,Pu2 Ir4 Si4,0.011799999999999145,129
3983,Cu4 Fe4 Se8,0.0,112
3984,Rb4 Na2 Fe2 C12 N12,0.0,14
3985,Pt8 Si16 P16,0.47659999999999947,4
3986,Cr20 As12,0.0,62
3987,Sr4 Ga4 H16,0.0,62
3988,Ho16 O40 Ti8,2.2426000000000004,8
3989,Mn4 P8 O28,0.0,11
3990,Ni4 P4 O16,1.1857,33
3991,Cr4 O16 P4,1.2009999999999998,2
3992,Mn4 Mo6 O16,0.0,186
3993,Fe1 S4 N6 C4 H8,0.5768,2
3994,Eu2 Si12,0.011400000000000077,63
3995,Fe4 Li4 Na8 O16,0.0,58
3996,As2 P6 H36 C12 S12 O12,3.4175,2
3997,Ce4 H64 C16 Cl12 O16,0.30999999999999983,14
3998,H26 C8 N2 F4,6.5296,59
3999,S20 N8 O32 F16,4.3178,14
4000,La6 Ti10 Al30 O74,1.3978000000000002,9
4001,Ca12 Zn12 Te8 O48,1.8503999999999996,214
4002,Sn4 C4 S4 N4 F4,2.8283000000000005,62
4003,Zn1 As2 C6 S12 N12 O6 F12,2.2259,147
4004,Si4 O8,5.198,1
4005,K12 Hg6 C12 S12 Br12 N12,2.3991,176
4006,Cu8 H24 C16 N8 O32,0.2782,61
4007,P8 S8 N8 Cl32 O16,4.0739,61
4008,Ho2 P2 H10 C2 O14,3.7117,2
4009,Er2 P2 H10 C2 O14,3.7117,2
4010,N12 F20 W4,3.2908,14
4011,Zn2 Ag4 C8 S8 N8,3.0002999999999997,15
4012,Sb4 H12 C4 S4 Cl24 O4,2.0032,14
4013,P4 H32 C8 S4 N4 O8,4.5667,14
4014,Cr6 O16,0.4215,12
4015,Cu2 C2 Cl2 O2,2.3667,31
4016,Mn8 Fe12 Si12 O48,0.0,230
4017,Ba1 Mn2 Sb2,0.0,139
4018,Al2 Sn4 P2 H48 C16,3.3878000000000004,2
4019,Mo8 P8 Cl40 O24,2.3144,14
4020,Sm2 C12 N18,3.5748,63
4021,Mg2 Cl4,5.1512,2
4022,Be12 Pt1,0.0,139
4023,Re3 C6 I6 O6,0.6295999999999999,148
4024,Pr40 O72,2.8244000000000002,14
4025,Mn1 Cu1 Sb1,0.0,216
4026,Y3 Pd3 Pb3,0.0,189
4027,V4 H16 C8 O24,2.9939999999999998,54
4028,Fe4 Sb8 O16,0.15559999999999974,14
4029,V2 Se2,0.0,129
4030,Fe12 C4,0.0,62
4031,Pr4 Ga4 Co4,0.0,62
4032,U2 H4 O8,1.8922999999999999,14
4033,Cs4 K2 Mn2 C12 N12,0.0,14
4034,K12 Ti4 Cl24,0.33540000000000003,14
4035,K4 C8 N12,4.500500000000001,14
4036,Rb4 C8 N12,4.5772,57
4037,K4 C8 N12,4.3293,62
4038,Mn8 Sb8 Se16 Br8,0.18320000000000025,1
4039,Mg8 Si8 O24,5.0524,14
4040,U4 In2 Ni4,0.0,1
4041,Ga24 P24 O102,0.21899999999999986,226
4042,Np4 In2 Pt4,0.0,6
4043,As20 Pb12 S40,0.13739999999999997,4
4044,P4 C8 S8 N12,3.2539000000000002,2
4045,As20 Pb12 S40,0.0,4
4046,Co46,0.0,186
4047,Pb4 C16 N24,3.6313999999999997,62
4048,Ce3 Mn1 Al24 Cu8,0.0,221
4049,Rb8 C16 N24,4.1966,1
4050,Rb8 C8 S8 O24 F24,5.4737,8
4051,P6 C12 S12 N18,3.3084000000000002,2
4052,K3 Au3 C6 N6,2.9012000000000002,148
4053,Np1 Fe2 Ge2,0.0,139
4054,Li2 Bi4 P10 O36,0.0,2
4055,Cu4 P4 O16,0.0,14
4056,Cu2 Ge4 P6,0.0,8
4057,Ca6 Nd2 F18,6.1386,1