Index,Composition,bandgap,spgN
2736,K2 Mn1 V14 O40,0.04659999999999975,139
2737,Ca6 H36 C24 O36,3.9082,2
2738,Co4 Cu4 C4 O20,0.006000000000000227,2
2739,V2 Cu1 H14 C2 N2 O4 F8,0.6693,2
2740,K8 Zr4 Si12 O40,0.8708,19
2741,Be4 Al4 Si4 O20,0.40039999999999987,14
2742,Sn8 P4 H128 C44 N12 Cl8 O4,3.439,62
2743,Cs8 Hg8 C24 S24 N24,2.5993,14
2744,Zn4 Te4 H32 N16,2.6973,4
2745,Nd26 Mg4 Si8 B16 O86,0.0,11
2746,Ta4 Si8 H144 C48 N16 Cl4,2.6452,14
2747,Cu8 As16 H48 C16 I8 O16,2.5851,15
2748,Ba4 U8 I8 O52,0.4939,14
2749,U8 P16 H16 C8 O56,1.7633,61
2750,V1 H17 C4 S4 O20 F12,2.7901,2
2751,Na12 P12 O40,0.9899,62
2752,Ba6 Co4 N24 O48,2.0984,224
2753,B88 H144 C32 S16 N8 Cl8,3.5272,14
2754,Ba4 S20 O80,0.019500000000000073,19
2755,K12 Ta4 O8 F28,0.23670000000000013,62
2756,Na2 Nd2 Si12 O30,0.0,35
2757,Cu4 H48 C24 S16 N8,0.3439,15
2758,Ca4 Al4 Si6 O24,0.0,28
2759,Y4 C6 O22,0.04459999999999997,36
2760,Li8 Si8 H152 C48 N32,3.1318,14
2761,Cu4 Pb10 C2 S6 O42,0.0,31
2762,Rb4 I12 O36,0.0,2
2763,Sr4 H8 C8 O16,4.7916,92
2764,Re4 H48 C16 N4 O16,4.4925999999999995,11
2765,B36 H100 C16 N4 Cl4,3.659,14
2766,Na14 Th4 H40 C32 O86,0.0363,43
2767,Pb14 Br4 O16,1.133,4
2768,Al8 Si16 O48,0.0,142
2769,Sn24 H224 C72 I8 N8,2.7466000000000004,198
2770,V4 Zn4 Pb4 O20,0.0,19
2771,Mn1 H44 C12 N8 Cl2 O10,4.0743,2
2772,K8 H8 C8 S16 N8,2.6323999999999996,60
2773,Yb4 H28 C16 O44,0.01870000000000016,86
2774,K12 Fe4 C24 N24,0.04129999999999989,14
2775,K8 Zr4 Si12 O40,0.7150000000000001,14
2776,Cu4 P4 N4 O20,0.2268,14
2777,V10 H56 C16 N26 O34,1.7787,2
2778,Sc12 In4 S24,0.6741000000000001,18
2779,Mg2 H40 C8 N20 O24,3.4091000000000005,14
2780,Fe4 H84 C28 S12 N4,0.21799999999999997,14
2781,K2 U4 B20 O48,0.197,15
2782,Tl2 H24 C8 S4 I6 O4,1.7936,15
2783,Ho8 Ni2 B26,0.0,128
2784,Li2 H26 C4 N8,4.325200000000001,85
2785,Ca1 H24 C6 Br2 O6,4.6469000000000005,147
2786,Mg4 B8 H32,3.816,227
2787,Sm12 Sb16 Se36,0.0,62
2788,V4 Zn4 Pb4 O20,0.0,62
2789,Cu12 Mo4 H96 C32 S12 I12 N8 O4,1.9696,14
2790,Sn2 H24 C12 S8 N4,2.876,15
2791,Rb6 P6 O20,0.9979,2
2792,K4 Ba4 P12 O40,0.9257,14
2793,K8 H4 S8 N4 O28,5.2735,14
2794,Ba12 P12 O48,0.0,33
2795,Re1 Ni1 Pb2 O6,0.0,225
2796,La1 Co5 H4,0.0,65
2797,Mg2 Sb3,0.0,164
2798,Mn1 Ga2 Ni1,0.0,225
2799,Co2 Mo2 P4,0.0,194
2800,Yb4 Tl4 Mo8 O32,0.0,62
2801,Yb2 Be2 N2 F12,2.2762000000000002,11
2802,Yb16 Al8 O36,0.0007999999999999674,14
2803,Tb4 W4 O20,0.11209999999999998,14
2804,Tb8 Ru4 O20,0.0748000000000002,62
2805,Sm1 Fe12 N1,0.0,139
2806,Sr2 Tm1 Cu2 Bi2 O8,0.0,139
2807,Sn4 I2 F4,0.0,20
2808,Sm4 W4 O20,0.2587,14
2809,Sm6 Ni12 Sn8,0.0,186
2810,Rb4 Dy4 Br12,0.0,62
2811,Sr4 H24 C24 S8 N8 O28,2.7449000000000003,14
2812,Pr4 W4 O20,0.557,14
2813,Rb2 Li4 U1 O6,2.175,164
2814,Pr8 Ru4 O20,0.0,62
2815,Na4 Zn8 Se8 O28,0.018400000000000027,62
2816,Na4 Ca2 C4 O12,3.0208000000000004,186
2817,Na3 Ca9 C6 O21 F9,0.6514,144
2818,Mg1 Bi2 F12,1.863,115
2819,Mg8 Al12,0.0,141
2820,Li2 Sm2 S4 O16,5.4608,118
2821,Li2 Nd2 S4 O16,5.3604,118
2822,La4 C4 O16,0.34389999999999965,19
2823,P8 H76 S24 N20 O8,0.7218,14
2824,K4 Th4 N20 O68,0.20740000000000003,14
2825,H16 C4 N16 O4,2.0492,2
2826,H24 C8 S4 N12 O8,2.2867,15
2827,Gd4 W4 O20,0.0421,14
2828,K24 Ge48 O96,0.0,173
2829,Cs2 Yb2 Mo4 O16,0.0,15
2830,Co1 H6 Cl2,0.4404,12
2831,Cs4 Cu6 C6 N14,0.0,15
2832,Cs8 B48 H16 F36,3.6099,19
2833,Ce2 N2 Cl8 O8,0.6549,18
2834,Ba2 Yb2 Al6 Si2 N8 O6,0.0,186
2835,Ca4 B20 H16 O36,1.9356,14
2836,Ba2 Pt6 O8,0.0,223
2837,C32 Cl16 O12,2.4903999999999997,14
2838,C64 Cl40,2.0377,14
2839,C40 Cl36 O2,1.3781,2
2840,Ba1 In2 Cu2,0.0,139
2841,Al1 Co2 Ni1,0.0,225
2842,As2 Pb2 O8,0.0,13
2843,Ba4 H28 C24 S8 N8 O30,2.6083,15
2844,Ba11 Cu5 Bi8 O29,0.0,12
2845,Y1 Fe11 Mo1 N1,0.0,44
2846,Zr3 Co8 Si1,0.0,160
2847,Y2 Mn3 Fe1,0.0,166
2848,Yb16 Sb8 S45,0.0,12
2849,V4 Ru1,0.0,69
2850,Yb10 S18,0.05080000000000018,5
2851,U1 Al6 Cu6,0.0,69
2852,U2 B9 O22,0.04630000000000001,1
2853,Th1 Zr2,0.0,164
2854,Tc1 W1,0.0,65
2855,Ti3 Cr17 Si12,0.0,38
2856,Tc3 Pd1,0.0,166
2857,Tb3 Mn3 Ga2 Ge1,0.0,174
2858,Ta1 V1 C1 N1,0.0,160
2859,Ta1 Re1 Se4,0.0,187
2860,Sr1 Cd3 S4,1.1496000000000004,166
2861,Ta2 Zn1 S4,0.0,164
2862,Sr1 Cd4 S5,0.8876,166
2863,Sr2 Nd2 Ni2 Ru2 O12,0.0,7
2864,Sr1 La1 Co2 O6,0.0,225
2865,Sr2 Dy2 Co2 O8,0.0,63
2866,Sr1 Ca1 Cr2 O6,0.0,123
2867,Sr1 Ca1 Cr2 O6,0.0,123
2868,Sr2 Li1 N1,0.0,107
2869,Sr2 Mn1 Ga1 O5 F1,0.0,47
2870,Sm1 U1 Al4,0.0,216
2871,Sn4 Te3 Se1,0.8484000000000003,160
2872,Sm1 Fe10 Mo2 N1,0.0,71
2873,Sm4 Fe4 Cu4,0.0,38
2874,Sm1 Er3 Mn8,0.0,8
2875,Sm2 Si3 Ni1,0.0,187
2876,Sc5 Ir15 C4,0.0,123
2877,Sb3 Au1,0.0,123
2878,Rb1 La1 Ti1 Nb1 O6 F1,1.056,25
2879,Re3 Ni1 O8,0.0,8
2880,Pr4 Ho2 Mn23,0.0,44
2881,Nd1 Fe10 Mo2 N1,0.0,71
2882,Nb4 Al5 Co3,0.0,187
2883,Nd2 Fe17 N2,0.0,12
2884,Nb3 Cr8 Si1,0.0,156
2885,Na1 La1 Ru2 O6,0.0,225
2886,Na6 Zr2 Si4 O17,0.05279999999999996,12
2887,Na1 Bi1 Se2,0.09600000000000009,123
2888,P12 H40 N12 O32,4.8515,14
2889,Na3 Co4 O8,0.0,12
2890,Mo1 Ir1,0.0,187
2891,Mo4 Ru1,0.0,69
2892,Mn6 Si3 Mo3,0.0,8
2893,Mn3 Ni1 O4,0.08009999999999984,123
2894,Mn2 In1 Cu1 Te4,0.0,139
2895,Mg2 Zr2 Si4 O14,2.7410000000000005,74
2896,Mn4 Ga2 Cu6,0.0,194
2897,Mn4 Cu8 S8,0.09850000000000048,216
2898,Mg1 Co4 O8,0.0,216
2899,Mg4 Al2 H12 C1 O18,0.0,157
2900,Li2 B6,0.00890000000000013,123
2901,Li4 P2 S6,0.0,185
2902,Li5 Fe1 Co4 O10,0.0,166
2903,La2 Ti4 O12,0.0,121
2904,La1 U1 Al4,0.0,216
2905,K1 Ti2 Bi1 O6,1.6871999999999998,225
2906,La6 Mg4 Nb2 O18,3.0866000000000007,71
2907,K4 C4 N4,5.2534,1
2908,In1 Sb1,0.0,119
2909,La4 Ni12 B7,0.0,8
2910,La2 Ni6 B3,0.0,44
2911,In1 Ag1 Te2,0.0,123
2912,In2 As1 Se1,0.0,115
2913,In1 Au3,0.0,187
2914,Ho2 Fe2 Ni2,0.0,74
2915,In5 Sn1 Sb3 Te1,0.06529999999999969,1
2916,K4 Pb2 Br8 O1,0.3478,2
2917,Hf1 Zr1 Nb2,0.0,35
2918,In1 Ga1 Co1 S4,0.0,8
2919,Hf1 In1 Cu2,0.0,123
2920,Hf4 Ga4 Co4,0.0,38
2921,K8 Zr3 Si12 Sn1 O40,0.8079000000000001,1
2922,Ga1 Pd1,0.0,166
2923,Fe1 Ru1,0.0,187
2924,Ga1 Fe3,0.0,65
2925,Fe3 Sn1,0.0,123
2926,Er1 Mn6 Ga6,0.0,69
2927,Eu2 Si3 Ni1,0.0,187
2928,Er1 Ti1 Fe11 N1,0.0,44
2929,Gd1 Ga6 Fe6,0.0,69
2930,Er1 Ag1 Sn2,0.0,123
2931,Dy1 Tl2 In1 S4,1.1665,121
2932,Er4 Mn6 Ga2,0.0,194
2933,Er4 Ge4 S14,0.4794999999999998,4
2934,Co1 Tc1,0.0,187
2935,Co1 Os1,0.0,187
2936,Co4 Ru1,0.0,166
2937,Co3 Sn2,0.0,187
2938,Cr5 Ni1 Sn12,0.0,21
2939,Co1 Ni1,0.0,65
2940,Cr12 As5 C1,0.0,25
2941,Cr1 Ru1,0.0,187
2942,Cr1 B4 Mo1,0.0,191
2943,Cr2 B2 W2,0.0,69
2944,Cr3 Ru3 C2,0.0,164
2945,Cd1 Te2 Pb1,0.0,123
2946,Ce4 Ni8 B12,0.0,107
2947,Ce2 Fe3 Rh1,0.0,166
2948,Cd3 Au1,0.0,65
2949,Ca1 La1 Co2 O6,0.0,225
2950,Cr30 As11 C4,0.0,38
2951,Ca2 Si3 Ni1,0.0,187
2952,Ca4 Se8 O22,0.584,9
2953,Ba1 Pr1 Nb1 Co1 O6,1.1725000000000003,119
2954,Ba1 La1 Nb1 Cr1 O6,0.0,216
2955,Ba1 Fe1 O2 F1,0.42589999999999995,123
2956,B1 Pd5,0.0,139
2957,Ca2 Al4 Si32 O76,1.1076,63
2958,Ag4 Pb8 Cl12 O4 F4,0.0,109
2959,Ba1 La1 Cr1 Mo1 O6,0.0,216
2960,Ba4 Co4 H8 C12 Cl4 O32,0.2682,15
2961,Al2 H32 C4 S4 N2 O28,3.1611000000000002,7
2962,Eu16 Mg8 Se32,0.0,29
2963,Li9 Mn2 Co5 O16,0.0,1
2964,Si2 Re1,0.0,139
2965,O4 Re2,0.0,136
2966,O3 Sc2,3.3899999999999997,164
2967,Na4 C1 O4,2.1989,5
2968,S8 Fe2 Lu4,0.0,227
2969,O14 Te4 Pr4,1.5336999999999996,227
2970,Te8 Tl8,0.0,140
2971,Cu2 Se1,0.08890000000000065,225
2972,C12 N12 Na2 Cr2 Cs4,1.9659,14
2973,O14 Si4 In4,1.8171,227
2974,Mn2 Ge2 La2,0.0,129
2975,Tb4 Si4 Rh4,0.022199999999999775,62
2976,C6 N6 Fe1 Pb2,3.4058,147
2977,Si4 As8,0.0,205
2978,Mn2 Ge2 Pr2,0.0,129
2979,Li2 Mn2 As2,0.0,129
2980,Ni1 Sn1 U1,0.013399999999998968,216
2981,Cr2 Se2,0.0,194
2982,B26 Co2 Tb8,0.0,128
2983,Tb4 Co2 Ge4,0.0,12
2984,Mn4 Co6 Ge2,0.009199999999999875,194
2985,Bi1 Np1,0.0,225
2986,H16 C16 O32 Ca8,4.6455,61
2987,H4 Li4 B4,0.0,62
2988,H3 Be1 Na1,0.9154,221
2989,H36 C12 O6 S6 Ga1 I3,3.0307,148
2990,H12 C4 O16 F12 S4,6.383800000000001,14
2991,O2 Tb1,0.0,225
2992,O6 Co1 Te1 Pb2,0.0,139
2993,Li1 O8 Mo3 In1,0.0,156
2994,Li4 C2 O14 P2 Ti2,0.23119999999999985,11
2995,O24 Si8 Fe4,0.0,14
2996,O28 P8 Sb4,0.11960000000000015,14
2997,C1 Pu1,0.0,225
2998,Nd4 Cl8,0.0,62
2999,Tl1 Bi1,0.0,221
3000,Ga4 Ba40,0.0,227
3001,Mn10 Lu2,0.0,186
3002,B1 Pd3 Lu1,0.0,221
3003,Mg2 Ag1 Ce1,0.0,225
3004,Ni1 Ga3 U1,0.0,119
3005,O24 P6 Co6,0.8034999999999999,159
3006,O32 P8 Co6,0.0,4
3007,O4 S1 Ba1,4.5086,216
3008,Bi3 Nb1 O7,2.1389999999999993,1
3009,Al4 O8 Zn2,3.0302999999999995,74
3010,As1 Na1 Zn1,0.0,216
3011,As13 Li31 Zr2,0.0012999999999996348,160
3012,Ag1 As1 Zn1,0.0,216
3013,Cd1 Ho2 S4,0.6539999999999999,119
3014,Nb1 Bi3 O7,1.8475000000000001,1
3015,N8 Si4 Mn4,0.5245999999999995,33
3016,Ta4 C2 N2,0.0,141
3017,Mn1 O3 Pb1,0.0,221
3018,La1 Nb1 O6 Sr1 Zn1,2.3729999999999993,216
3019,Co2 Nb1 Sn1,0.0,225
3020,V1 Ni1 Sb1,0.0,216
3021,Pu4 P8 K12 S32,0.06440000000000001,14
3022,Tb16 Ti8 O40,2.4300000000000006,1
3023,Al34 Mg5 O56,0.17269999999999897,8
3024,Mg20 O40 Si10,2.3731,160
3025,O14 P4 Ni2,0.011299999999999866,4
3026,Li2 Ni4 P6 O24,0.0,2
3027,Te6 Bi2 Ge3,0.0,160
3028,Bi12 Rb4 S20,0.0,58
3029,K6 Fe2 C12 N12,0.0,14
3030,Al4 F24 N24 H60,5.5093000000000005,19
3031,Rb8 Li4 C12 S12 O36 F36,5.8783,14
3032,As2 C2 S6 N4 F22,3.2632000000000003,2
3033,C16 O20 F24,5.3178,14
3034,Fe21 S24,0.0,152
3035,Ca2 Bi2 C2 O8 F2,1.4759999999999995,59
3036,Sb16 Pd4 C16 O16 F88,3.2589,14
3037,Li3 Ti4 O8,0.0,3
3038,H8 C4 O8,4.8418,33
3039,As8 S48 N40 F48,1.7912,15
3040,Hg4 C8 O8 F12,3.2547,15
3041,P4 S8 N4 Cl24 O16,2.6486,62
3042,Ba1 Bi4 Cl2 O6,0.0,139
3043,Ba1 Bi4 Br2 O6,0.0,139
3044,Cs3 Mo4 P3 O16,0.10060000000000002,215
3045,Mn4 H8 C8 O16,3.4661,60
3046,Sr2 Cr2 F8,2.4214,12
3047,Sb4 C4 N4 Cl20,1.9434999999999998,14
3048,Yb6 Cs2 Se8,0.0,194
3049,Ag8 Se4,0.0,17
3050,K4 C8 N12,4.6487,57
3051,Ga4 Rh2 C8 Cl14 O8,2.0192,2
3052,Ti2 N6 Cl6,2.318,2
3053,Tm3 Cu4 Sn4,0.0,12
3054,Na1 Cu1 O2,0.009200000000000319,166
3055,V8 P16 N8 Cl80 O8,1.7981,61
3056,Sc6,0.0,178
3057,Cr2 Se2,0.0,129
3058,Co4 P12 H48 N4 O28,3.2087,14
3059,Mg12 H52 C36 N4 O52,4.0947,14
3060,O4 Fe2 Tl2,1.5352999999999999,166
3061,U10 O30,1.4882,4
3062,K12 Fe4 C24 N24,0.0,60
3063,Re8 C12 I16 O12,0.4427000000000001,15
3064,U4 H8 O16,1.9022999999999999,61
3065,P8 H24 O24,4.2766,4
3066,Fe4 H4 O8,1.7038,4
3067,Sr2 H8 O12,0.5135,9
3068,Mo4 H4 O14,2.2613000000000003,4
3069,Ga1 Fe2 Co1,0.0,225
3070,V1 Fe2 Sn1,0.0,225
3071,K4 Au4 C8 S8 N8,2.2406,15
3072,K2 H6 C4 O6,5.1738,2
3073,Zn2 Ag4 C8 S8 N8,3.0618,9
3074,Os6 C18 Se4 O18,2.3869000000000002,2
3075,K4 Pd2 C8 S8 N8,1.5867,14
3076,Hf6 Te12 Cl72,1.885,167
3077,Li4 Al4 Si4 H8 O20,4.3331,33
3078,Mn8 Sb8 Se16 Br8,0.1429999999999998,6
3079,Mg16 Si16 O48,4.3843,61
3080,Bi4 Te4 I4 O12,0.0,129
3081,Nd14 Cl32 O1,0.4239999999999995,148
3082,Bi5 P6 O24,0.0,1
3083,Mo14 S16,0.0,1
3084,Ca8 Si4 O16,4.3743,14
3085,Dy10 Ti5 O25,2.8711999999999995,1
3086,Y4 Zr18 O44,0.0,6
3087,La6 O4 F10,3.5752000000000006,1
3088,Dy20 Ti12 O54,1.7770000000000006,8
3089,Nb1 Bi7 O13,1.5781999999999998,1
3090,Yb4 Zr4 O14,0.0,51
3091,Ho6 Ta2 O14,3.544,1
3092,Ca3 Al4 Si8 Cl2 O24,3.6088000000000005,1
3093,Zn3 Cu3 Hg12 As21 S36,0.0,1
3094,C8 N8 K4 Cu4,2.6066,14
3095,P24 C48 S48 N72,3.2771,14
3096,Si8 O16,5.2101999999999995,1
3097,Si64 O128,5.359500000000001,47
3098,Sn8 P12 O40,0.3405999999999998,14
3099,Cu8 Se4,0.0,8
3100,Cu4 Se2,0.0,31
3101,U12 O19,0.0,156
3102,Nb16 N9,0.0,5
3103,Li1 C6 N6 Mn1 Cs2,0.0,225
3104,Ni1 H6 C2 S2 N4,0.5696000000000001,8
3105,K2 Ba1 Ni1 N6 O12,1.6928999999999998,1
3106,Na4 Al11 Si13 Ag7 O48,1.5011,1
3107,K2 Al11 Si13 Ag9 O48,1.2822,1
3108,Ba14 Si2 B6 N2 O26,0.18159999999999998,173
3109,Mn4 P4 O16,1.1500000000000001,14
3110,Ba4 H16 C12 O24,4.6433,82
3111,Li8 H16 S8 N8 O24,5.017099999999999,29
3112,Li8 Ni4 P8 O32,0.0,4
3113,Cr9 P12 O48,0.0,1
3114,Fe24 O32,0.9833000000000003,57
3115,P12 H52 N14 Cl2 O38,3.2264,2
3116,Al8 B24 H112 N8,1.1690999999999998,14
3117,H16 C4 S4 N8 O8,2.9683,62
3118,Nb20 Pb28 O78,2.1847,4
3119,Gd2 H36 C6 S6 O36 F18,3.6147,176
3120,Cu20 Si16 H8 O56,0.0,61
3121,O2 S2 Cu3 Sr2,0.0,139
3122,K8 Tc4 H12 C16 O42,0.5076,2
3123,Mn2 H32 C8 N2 O4 F8,2.2687,15
3124,Mn4 Zn8 Si4 H8 O24,1.0539,14
3125,Co2 P4 H48 C16 S8 N2 Cl2 O8,2.0123,2
3126,V8 H64 C16 N8 O24,3.0763,2
3127,Yb4 Sm4 O12,0.0,7
3128,Na4 Be4 O8,2.8988,15
3129,Tm4 Zr4 O14,2.2464000000000004,227
3130,Li3 Cu4 Te1 O8,0.0,12
3131,Nb5 O1 F14,0.0,2
3132,Cu9 C9 O27,0.0,1
3133,Li4 Ni4 C8 O24,0.1916,14
3134,Li6 Ni4 C8 O24,0.6515,4
3135,Mg4 Fe4 O12,0.1025999999999998,15
3136,Li2 Fe8 P6 O24,2.2118999999999995,9
3137,Fe12 O12 F12,0.0,6
3138,Rb4 Li4 V4 P4 O20,2.3445,19
3139,Li6 Fe10 O24,0.0,1
3140,Li4 Fe9 Co1 O20,0.0,10
3141,K2 Nb2 P2 C2 O14,0.4433,4
3142,Li3 Co3 Ni1 O8,0.0,166
3143,Co4 Hg2 O8,0.0,227
3144,Ti2 Mn3 Te3 O16,0.0,1
3145,Mn3 Fe3 Co2 O16,0.0,8
3146,Ti4 V1 O8,0.0,12
3147,Li4 Ti1 Fe5 O12,0.3354999999999999,12
3148,Li4 Fe5 Ni1 O12,0.0,1
3149,Li5 Cu4 B4 O12,0.0,1
3150,Sm8 Zr8 O28,3.6352,14
3151,Mn2 Tl2 O6,0.0,148
3152,Mn5 Te3 O16,0.0,1
3153,Dy8 Zr8 O28,4.0207,92
3154,Li3 Fe5 O12,0.0,1
3155,V2 Cr3 Sb3 O16,1.4335000000000004,8
3156,Mn1 Te1 O4,0.0,10
3157,Sn2 Sb4 H48 C16 S4 Cl4,2.9968,14
3158,Cr3 Sn2 Sb3 O16,0.3979999999999997,8
3159,Fe7 O3 F13,0.9430000000000001,1
3160,Mn3 Co2 Te3 O16,0.0,1
3161,Li4 Nb1 Fe3 O12,0.0,3
3162,Li4 Co8 O16,0.0,95
3163,Li10 Ti3 Co3 Ni2 O16,0.8922000000000003,1
3164,Li4 Nb3 Cu3 Sn2 O16,0.021599999999999397,8
3165,Li2 Fe3 Ni1 O8,0.0,166
3166,Cr3 Sb3 Te2 O16,1.5265000000000004,8
3167,Si2 Ru1,0.0,123
3168,Li4 Cr2 Fe3 Co3 O16,0.0,1
3169,Li16 Fe8 S16,0.13339999999999996,14
3170,Li10 Ti2 Mn3 Ni3 O16,0.42710000000000026,1
3171,B4 C4 La2,0.0,131
3172,Ti5 Ni1 P6 O24,0.0,146
3173,V3 Cr2 Sb3 O16,1.1733000000000002,8
3174,Co6 O6 F6,0.0,31
3175,Li2 Cu10 P4 O16,0.08659999999999979,1
3176,Co6 O5 F7,0.07769999999999988,5
3177,Li6 Co2 O4 F4,1.2644,13
3178,Li4 Co5 O9 F1,0.23859999999999992,1
3179,Li9 Mn15 Fe6 O36,0.1477999999999997,1
3180,Li5 V3 Ni2 O10,1.2491000000000003,2
3181,Li6 Ni4 O2 F10,0.4111999999999999,5
3182,Er2 Cl4,0.0,136
3183,Ca1 Ce1 Mg2,0.0,225
3184,U1 F3,0.0,139
3185,Ho1 Nb1 Os2,0.0,225
3186,Lu1 Tc2 W1,0.0,225
3187,Ca4 Sn2 S8,1.9707999999999997,11
3188,Na12 U2 S8 O40,0.135,2
3189,N2 Cu1 Ta1,0.4853000000000005,166
3190,Li1 Ag1 Te1,0.0,216
3191,Zn1 Hg3,0.0,225
3192,Zn1 Pb3,0.0,139
3193,Zn2 Sn6,0.0,194
3194,Lu2 Tc1 Au1,0.0,225
3195,Pa3 Tc1,0.0,225
3196,Re3 Mo1,0.0,139
3197,Re6 Mo2,0.0,194
3198,Pr1 Ge3,0.0,221
3199,Ho3 In4 Co2,0.0,174
3200,Na1 Mg3,0.0,221
3201,La6 Ag2,0.0,194
3202,Zn1 Sn3,0.0,225
3203,Ti3 Ni1,0.0,221
3204,Pm3 Zr1,0.0,139
3205,K3 In1,0.0,221
3206,Ga3 Cu1,0.0,221
3207,H2 C6,0.0,1
3208,Si4 H24 C4 I12 N4,0.815,1
3209,Ag2 Br2 O4,0.27669999999999995,15
3210,Cs1 In1 F3,0.0,5
3211,Y1 Re1 N3,0.0,1
3212,Br1,0.0,71
3213,Ti3 Ga1,0.0,225
3214,Ti2 Al1 Cr1,0.0,216
3215,Nb1 Fe3,0.0,139
3216,Na4,0.0,194
3217,V8 O18,0.0,85
3218,Ca2 V4 O12,1.6773,31
3219,Zn6 Bi4 P4 O24,0.0,6
3220,Ti4 Zn1 O8,0.0,8
3221,Y8 Mo12 O42,0.45279999999999987,12
3222,Mg4 Cr8 O16,2.6976,59
3223,Zn4 Ni8 O16,0.0,6
3224,Ca4 V8 Bi8 O40,0.6345000000000001,29
3225,Cu4 S2,0.0,122
3226,Zn2 Cr3 O8,0.0,12
3227,Ca2 V2 Bi2 O12,0.5953999999999999,4
3228,Ca2 Cr4 Si16 O40,1.4225000000000003,114
3229,Mg2 Mo3 O8,1.3001999999999998,12
3230,Ti4 Fe3 O12,0.7840999999999996,71
3231,V4 P6 O24,0.9778,2
3232,Y14 Cu6 Ge6 Se42,0.0,1
3233,Mg8 Cr8 Si12 O48,0.8582999999999998,142
3234,Ca4 Ti2 N4,0.0,12
3235,Zn2 Sn2 F10,0.0,15
3236,Y1 Fe1 F5,4.0198,71
3237,Ca4 Ta4 Cu2 O16,0.5667,2
3238,Y1 Mn1 F5,4.1583,71
3239,Mg12 Cu8 Si12 O48,0.4256000000000002,230
3240,Zn6 Fe4 O14,0.0,36
3241,Si12 Te8 O48,2.7839,230
3242,Ca4 Cu4 O10,0.0,55
3243,Zn12 Cr8 Si12 O48,3.2794,230
3244,Zn12 Fe8 Si12 O48,2.6936000000000004,230
3245,Al2 Cu4 O8,0.0,166
3246,Zn4 Ni2 Sb2 O12,0.0,11
3247,Y8 Si12 Sn12 O48,2.4276,230
3248,Ca6 Si8 Sb4 O28,2.399,15
3249,Mg6 Bi12 O24,1.5534,8
3250,Mg6 Si8 Mo4 O28,1.9463999999999997,15
3251,Mg4 Cu4 As4 O20,0.5773999999999999,4
3252,Mg4 Sb4 As4 O20,2.8803,19
3253,Mg4 Sn4 As4 O20,1.5261999999999998,1
3254,Ca1 Co4 S8,0.0,166
3255,La2 Zn2 Fe2 Co2 O12,0.0,7
3256,Ag1 Te2 Tl1,0.0,119
3257,Ta36 B4 C35,0.0,1
3258,Ba1 O2,2.1125,65
3259,Cr3 Fe1,0.0,225
3260,Ce1 Te1,0.0,221
3261,Mn1 Fe1 Te1,0.0,216
3262,Pb1 S1,0.7372999999999994,187
3263,Be1 B2,0.0,191
3264,Cr12 N16,0.0,9
3265,Sr1 Mg6 Cd1,0.0,38
3266,Hf1 Mg6 Bi1,0.0,38
3267,Al1 Co3,0.0,221
3268,Ce2 O4,1.9544000000000001,136
3269,Zn8 Si4 O16,2.1159000000000003,74
3270,Li1 Mg6 Sb1,0.0,38
3271,Li1 Mg6 Si1,0.0,38
3272,Sr1 Li1 Mg6,0.0,38
3273,Li1 La1 Mg6,0.0,38
3274,Mg6 Ti1 Bi1,0.0,38
3275,Hf1 Mg6 Sn1,0.0,38
3276,Mg6 Sn1 Sb1,0.0,38
3277,La1 Mg6 Sn1,0.0,38
3278,Ti1 Ag1 Se2,0.0,160
3279,Mg6 Ni1 Sn1,0.0,38
3280,Mg6 Co1 Cu1,0.0,38
3281,Hf1 Mg6 Zr1,0.0,38
3282,Mg6 Zr1 Ti1,0.0,38
3283,Ce1 Mg6 Zr1,0.0,38
3284,Ba1 Mg6 Zn1,0.0,38
3285,Mg6 Zr1 Zn1,0.0,38
3286,Mg6 Zn1 Ni1,0.0,38
3287,Mg6 Mn1 Ga1,0.0,38
3288,Nb6 Si2,0.0,223
3289,Mg6 Mn1 Cd1,0.0,38
3290,Mg6 Mn1 Cd1,0.0,38
3291,Li1 Mg6 Mn1,0.0,38
3292,Ca1 Hf1 Mg6,0.0,38
3293,La1 Mg6 Al1,0.0,38
3294,Mg6 Al1 Cu1,0.0,38
3295,Mg6 Al1 Cu1,0.0,38
3296,Eu2 Al1 N1 O3,0.0,107
3297,Mn1 Al2 S4,0.0,160
3298,Te4 Mo2 W1 S2,0.008099999999999774,156
3299,Te2 Mo1 W2 S4,0.22219999999999995,156
3300,Te2 Mo2 W1 S4,0.07819999999999983,187
3301,Te2 Mo1 W2 S4,0.0,156
3302,Te4 Mo2 W1 S2,0.2168000000000001,156
3303,Te2 Mo1 W2 S4,0.0,156
3304,Te4 Mo2 W1 S2,0.18690000000000007,156
3305,Te2 Mo2 W1 S4,0.07010000000000005,156
3306,Hf1 Mg14 Ti1,0.0,187
3307,Ba1 Mg14 Sn1,0.0,38
3308,Mg14 Ti1 Nb1,0.0,38
3309,Mg14 Cd1 Mo1,0.0,187
3310,Mg14 Ga1 Mo1,0.0,187
3311,Ba1 Mg14 Cd1,0.0,187
3312,Na1 Mg14 Cr1,0.0,187
3313,Sr1 Mg14 Si1,0.0,38
3314,Ce1 Mg14 Mo1,0.0,38
3315,La1 Hf1 Mg14,0.0,187
3316,Ce1 Mg14 Cr1,0.0,38
3317,Ce1 Hf1 Mg14,0.0,187
3318,Li1 Mg14 Mo1,0.0,187
3319,K1 Mg14 Cd1,0.0,187
3320,Mg14 Cr1 Cu1,0.0,187
3321,Mg14 Nb1 Cu1,0.0,187
3322,Mg14 Cr1 Cu1,0.0,38
3323,Mg14 Zr1 Cr1,0.0,187
3324,Mg14 Zr1 Ni1,0.0,187
3325,Mg14 Zr1 Co1,0.0,38
3326,Ba1 Y1 Mg14,0.0,38
3327,K1 Y1 Mg14,0.0,187
3328,La1 Mg14 Mn1,0.0,187
3329,Ca1 Mg14 Cr1,0.0,38
3330,Ca1 Mg14 Bi1,0.0,187
3331,Ce1 Mg14 Mn1,0.0,187
3332,Mg14 Al1 V1,0.0,187
3333,Mg14 Al1 Ni1,0.0,187
3334,Mg14 Al1 V1,0.0,38
3335,Mg14 V1 Sb1,0.0,187
3336,Hf1 Mg14 V1,0.0,38
3337,Sr1 Mg14 Ni1,0.0,38
3338,K30 Os14 N38,0.032399999999999984,2
3339,Li1 Mg6 W1 O8,1.8506,123
3340,Li1 Mg6 Bi1 O8,1.0029000000000003,123
3341,Mg6 V1 Cd1 O8,0.5964,123
3342,Mg6 Cr1 Ni1 O8,0.0,123
3343,Mg6 V1 Ni1 O8,0.047900000000000276,123
3344,Mg6 Cd1 Co1 O8,1.2733999999999996,123
3345,Mg6 Cr1 Fe1 O8,0.0,123
3346,Mg6 V1 Fe1 O8,0.7917999999999994,123
3347,Na1 Hf1 Mg14 O15,0.0,25
3348,Sr1 Mg14 Cd1 O16,2.0974000000000004,47
3349,Mg14 Nb1 V1 O16,0.0,47
3350,K1 Mg14 Co1 O16,0.20000000000000018,47
3351,Mg14 Cu1 Bi1 O16,0.4285999999999994,123
3352,Mg14 Cu1 Sn1 O16,0.0,47
3353,K1 Mg14 Ga1 O16,1.8608000000000002,47
3354,K1 Mg14 Cr1 O16,0.10109999999999975,123
3355,Mg14 Mn1 Nb1 O16,0.0,47
3356,Y1 Mg14 Ni1 O16,1.1792999999999996,123
3357,Mg14 Mn1 Nb1 O16,0.0,123
3358,Y1 Mg14 Ni1 O16,0.9626999999999999,47
3359,Ca1 Y1 Mg14 O16,0.0,47
3360,Mg14 Ti1 Al1 O16,0.025399999999999423,123
3361,Mg14 Ti1 Al1 O16,0.05530000000000079,47
3362,Mg30 Co1 C1 O32,2.2077999999999998,123
3363,Mg30 Co1 C1 O32,2.7642999999999995,123
3364,Mg30 Si1 Ni1 O32,1.5945,123
3365,Mg30 Zn1 C1 O32,3.1845,123
3366,Ba1 Y1 Mg30 O32,0.4542999999999999,123
3367,Y1 Mg30 Si1 O32,0.3138000000000005,123
3368,Y1 Mg30 Si1 O32,0.0,123
3369,Y1 Mg30 Sn1 O32,0.28990000000000116,123
3370,Mg30 Mn1 Bi1 O32,0.8142000000000005,123
3371,Cs1 Mg30 Al1 O32,3.4471999999999996,123
3372,Cs1 Mg30 Mn1 O32,1.1063999999999998,123
3373,Mg30 Ga1 B1 O32,2.131599999999999,123
3374,Mg30 Cr1 B1 O32,1.0854,123
3375,Hf1 Mg30 Nb1 O32,0.13199999999999967,123
3376,Sr1 Mg30 Bi1 O32,0.0,123
3377,Mg8 Bi4,0.0,63
3378,Ca4 Mg8,0.0,15
3379,Mg4 Bi8,0.0,15
3380,Ce4 Mg2,0.0,189
3381,Ce6 Mg6,0.0,5
3382,Ca2 Mg4,0.0,189
3383,Rb1 Mg30 Sb1 O32,2.6984000000000004,123
3384,Rb1 Mg30 B1 O32,3.8489999999999998,123
3385,Rb1 Mg30 Si1 O32,0.44650000000000034,123
3386,Rb1 Ce1 Mg30 O32,0.0,123
3387,Rb1 Na1 Mg30 O31,1.8075,25
3388,Rb1 La1 Mg30 O32,3.8241000000000005,123
3389,Mg30 Ti1 B1 O32,0.4602000000000004,123
3390,K1 Mg30 B1 O31,3.2361000000000004,25
3391,Ca2 La2 Cr2 Cu2 O12,0.0,7
3392,Mg6 Co12 O24,0.0,1
3393,Ti6 Zn2 P6 O26,0.0,11
3394,Zn6 Mo12 O24,1.0811000000000002,1
3395,Ho2 W4 O12,1.6766999999999999,1
3396,Mg4 Cr8 O16,2.1046000000000005,57