Index,Composition,bandgap,spgN
18394,K2 Cu1 Au1 F6,0.0,225
18395,K2 In1 Hg1 I6,0.0,225
18396,K2 As1 Au1 I6,0.0,225
18397,Cs2 In1 Sb1 F6,1.9031999999999996,225
18398,Rb2 La1 Cu1 Cl6,2.1242,225
18399,Cs2 Ga1 Ag1 I6,0.0,225
18400,Rb3 Nb1 F6,0.0,225
18401,Rb2 Ti1 Tl1 F6,0.0,225
18402,Rb2 Tl1 Ga1 Cl6,2.3868,225
18403,K1 Rb2 Al1 Br6,3.1546000000000003,225
18404,Cs2 Na1 Ta1 F6,0.3197000000000001,71
18405,Ti2 F8,4.3349,1
18406,Ti4 Zn2 Sn4 O14,3.0416,15
18407,Sr2 Co1 Se1 O2,0.061900000000000066,123
18408,Na1 V6 O15,0.7188,1
18409,Li4 Mn1 Co3 O8,0.40100000000000025,2
18410,Li4 Mn1 Co3 O8,0.0,10
18411,Li4 Mn1 Co3 O8,0.0,10
18412,Li5 Co3 O8,0.0,12
18413,Li5 Mn1 Co2 O8,0.0,12
18414,Li5 Mn2 Co1 O8,0.21240000000000014,12
18415,Li4 Mn1 Co3 O8,0.0,2
18416,Li5 Mn1 Co2 O8,0.0,12
18417,Li5 Co3 O8,0.0,12
18418,Li5 Co3 O8,0.14219999999999988,2
18419,Li5 Mn1 Co2 O8,0.0,12
18420,Li7 Co5 O12,0.0,12
18421,Li8 Mn2 Co4 O14,0.8565999999999998,2
18422,Li8 Mn2 Co4 O14,0.9410000000000003,2
18423,Li8 Mn2 Co4 O14,0.9276,2
18424,Li8 Mn2 Co4 O14,1.0276999999999998,2
18425,Li8 Mn2 Co4 O14,0.8616999999999999,1
18426,Li8 Mn2 Co4 O14,0.9245000000000001,1
18427,Li8 Mn2 Co4 O14,0.9212000000000002,1
18428,Li8 Mn2 Co4 O14,0.8458000000000001,1
18429,Li8 Mn2 Co4 O14,0.9270999999999998,1
18430,Li7 Mn2 Co3 O12,0.8670999999999998,1
18431,Li7 Mn2 Co3 O12,0.6166999999999998,2
18432,Li7 Mn2 Co3 O12,0.5065,10
18433,Li7 Mn2 Co3 O12,0.7579000000000002,1
18434,Li7 Mn2 Co3 O12,0.16369999999999996,1
18435,Li7 Mn2 Co3 O12,0.8073000000000001,1
18436,Li7 Mn5 O12,0.0,2
18437,Li7 Mn5 O12,0.0,2
18438,Li9 Co7 O16,0.07469999999999999,12
18439,Li9 Co7 O16,0.0,10
18440,Li9 Mn2 Co5 O16,0.45779999999999976,2
18441,Li9 Co7 O16,0.4883000000000002,12
18442,Li9 Co7 O16,0.0,10
18443,Li9 Mn2 Co5 O16,0.5621999999999998,2
18444,Li9 Mn2 Co5 O16,0.6656999999999997,1
18445,Li9 Mn2 Co5 O16,0.6517999999999997,1
18446,Li9 Mn2 Co5 O16,0.7048000000000001,1
18447,Li9 Mn2 Co5 O16,0.6252,1
18448,Li9 Mn2 Co5 O16,1.0061999999999998,2
18449,Li9 Mn2 Co5 O16,0.5781000000000001,5
18450,Li9 Mn2 Co5 O16,0.5921000000000003,1
18451,Li9 Mn2 Co5 O16,0.5781000000000001,1
18452,Li9 Mn2 Co5 O16,0.7174,1
18453,Li9 Mn2 Co5 O16,0.39029999999999987,1
18454,Li9 Mn2 Co5 O16,0.8614000000000002,1
18455,Li9 Mn2 Co5 O16,0.5588000000000002,3
18456,Na8 Fe4 O12,0.07439999999999997,62
18457,Li8 V8 F32,2.1361,62
18458,Li4 Mn4 F12,3.2771,63
18459,Li4 Fe4 Sn4 O16,1.3354999999999997,95
18460,Li2 Fe2 F8,3.2814,15
18461,Li8 Mn8 P16 O56,0.5664,1
18462,Li18 Fe18 F54,2.4214,2
18463,Li2 Fe8 B8 O24,1.2659000000000002,1
18464,Li2 Fe8 B8 O24,1.4094999999999998,1
18465,Co1 Cu2 Si1 S4,0.0,121
18466,Li6 Ti3 Fe1 P6 O24,0.04980000000000029,1
18467,Li5 Mg11 W12 O48,1.7714999999999996,6
18468,Li4 Ti2 Mn3 V3 O16,0.5756999999999999,1
18469,Li4 Ti1 Fe2 Ni3 P6 O24,2.3667000000000007,1
18470,Li4 Mn3 Ni2 Sb3 O16,0.0,8
18471,Li8 Mn18 O36,0.0,55
18472,Li3 V3 O8,1.2366000000000001,44
18473,Li4 Mn2 Ni3 Sn1 P6 O24,3.0877,1
18474,Li4 Mn2 Ni3 Sn3 O16,0.0,8
18475,Li12 Ni8 P12 O48,0.0014000000000000679,14
18476,Li12 Mn4 V4 P12 O48,0.5012000000000001,1
18477,Li12 Mn4 V4 P12 O48,0.3960999999999999,1
18478,Li3 La5 Ti8 O24,0.0,12
18479,Li12 Cr4 P4 C4 O28,2.0674,1
18480,Li6 V3 Ni3 O12,1.5025999999999997,1
18481,Li4 Mn6 B6 O18,0.0,1
18482,Li2 Mn3 W1 O8,0.0,166
18483,Hf4 N4 O2,2.4833,9
18484,La16 Cu6 O32,0.0,2
18485,Fe18 O18 F18,0.8009,6
18486,Fe18 O18 F18,0.0,6
18487,Fe18 O18 F18,0.0,6
18488,Fe18 O18 F18,0.0,6
18489,La4 Eu2 O8,0.5410000000000004,141
18490,Ga1 Pt1 O2,0.0,166
18491,Fe10 O11 F9,0.0,1
18492,Co10 O5 F15,0.48120000000000007,1
18493,Bi6 O5 F8,2.778,1
18494,Ba8 In6 O17,0.6684000000000001,12
18495,Ta10 Al6,0.0,193
18496,Sr4 Ca2 W2 O12,3.1569000000000003,25
18497,V12 Cd4 O28,1.8063000000000002,62
18498,Rb4 V2 O4 F8,0.8530000000000001,63
18499,Na1 H1 F2,6.4955,1
18500,Na8 Se8 O24,3.2244,15
18501,K2,0.0,141
18502,Ge7 H18 O23,3.0566999999999998,1
18503,Ba2 O12,0.0,15
18504,Ba3 Re3 H27,3.2063,143
18505,Ac6 Dy2,0.0,194
18506,Ac6 Ho2,0.0,194
18507,Ba1 Eu3,0.0,139
18508,Cd1 Cu3,0.0,221
18509,Ga1 Hg3,0.0,139
18510,Gd1 Bi3,0.0,139
18511,Ho2 Ga1 Os1,0.0,225
18512,Ho2 Zn1 Tc1,0.0,225
18513,In2 Ga6,0.0,194
18514,La1 Ce3,0.0,139
18515,La3 Eu1,0.0,139
18516,Li6 Te2,0.0,194
18517,Li2 Ca6,0.0,194
18518,Mg16 Al12 Ge1,0.0,217
18519,Mg16 Mn1 Al12,0.0,160
18520,Mg16 Ti1 Al12,0.0,160
18521,Mg5 Cu1,0.0,189
18522,Pr1 Sm1 Ir2,0.0,225
18523,Tb6 Ce2,0.0,194
18524,Th2 Zr6,0.0,194
18525,Ti3 Be1,0.0,139
18526,Yb1 Tc1 O3,0.0,221
18527,Yb1 Ce1 Cu2,0.0,225
18528,V2 Au6,0.0,194
18529,Yb3 Cd1,0.0,221
18530,Bi8 O12,2.5884,227
18531,Li8 Mg4 Ir4,0.0,215
18532,Fe8 O10,0.9972999999999992,63
18533,Pu2 B8 Ir8,0.0,86
18534,U4 Co2 S10,0.0,15
18535,Mn2 Nb6 Se12,0.0020999999999995467,182
18536,Ti6 H4 O14,3.0011,12
18537,Fe1 H10 S2 N4 O8,4.32,2
18538,La6 In2 Co2 S14,0.0,173
18539,Ti6 Al16 Os7,0.0,225
18540,Ba2 Cr4 As2 O20,0.020600000000000063,2
18541,Fe25 Mo4,0.0,217
18542,La2 Fe10 H14,0.0,66
18543,Mn3 Ni20 B6,0.0,225
18544,Nb12 Ni12 C4,0.0,227
18545,Zn6 Cu2 P4 O18,0.0,12
18546,Ta4 P8 O32,0.008900000000000019,62
18547,Mn10 P8 H12 O40,0.7411000000000003,15
18548,Co6 H36 C12 O36,2.4473000000000003,14
18549,Y4 B12 H72 C8 S4,3.4949000000000003,14
18550,U2 Si16 H112 C32 N8,0.3046000000000001,15
18551,Fe4 Se12 O32,0.2912,14
18552,Li4 Mo30 Se38,0.0,167
18553,Na20 Cu8 H56 S16 O76,0.0,14
18554,Na4 Eu4 P8 H16 C4 O28,0.0,14
18555,Co4 H16 S4 N8 O16,2.3739,56
18556,Na4 Ca4 Al4 O4 F24,1.4668,14
18557,U4 H24 C4 S6 N4 O32,1.9623,1
18558,Sn4 Mo30 Se38,0.0,167
18559,Fe8 B8 O24,1.4836,14
18560,Li4 Fe8 P16 O56,0.0,56
18561,Ag2 H24 C8 Se10 N2,1.1631999999999998,9
18562,H20 Br4 N4 O4,4.565,14
18563,Zn4 As12 O4 F72,0.0,62
18564,Cs8 In4 Cl20 O4,2.6098,62
18565,Lu8 Ni2 B26,0.0,128
18566,Nd22 Hg90,0.04279999999999973,216
18567,Ag4 H36 C8 N8 O8,3.2881,14
18568,Mn20 P8 O48,0.0,19
18569,Mo4 P12 H108 C36 I8 O4,1.1618,19
18570,Ce6 S6 O32,0.0484,87
18571,La4 H16 C8 S4 O32,2.7506,14
18572,La18 C18 O72,0.010099999999999998,174
18573,Mn4 P8 H8 O32,0.3449,14
18574,K4 Ru4 N16 O32,0.30770000000000003,14
18575,Na12 Co6 B18 P12 H6 O76,0.0848000000000001,4
18576,Sn2 H20 C6 Br6 N2,3.3009000000000004,4
18577,Ca4 Mn2 Al4 Si8 B2 O32,0.0,2
18578,V20 H72 N12 O68,2.3789,2
18579,Ce2 H32 N14 O38,0.1862999999999999,9
18580,K4 Fe4 H16 C8 Cl4 O26,2.2047,43
18581,K4 B24 F24,2.6402,15
18582,Yb4 Ni2 As4,0.0,186
18583,Rb3 Pr1 F6,5.3443,225
18584,Y6 Ru4,0.0,176
18585,Tm2 Ge6 Pt1,0.0,38
18586,Eu2 Zr1 O4,0.0,139
18587,Nb1 Ga1 Pb2 O6,2.6900000000000004,225
18588,Cs1 Pd1 F3,0.0,221
18589,Yb2 Co8 Ge4,0.0,136
18590,Yb6 Cu22 Si8,0.0,194
18591,Y6 Cu22 Si8,0.026399999999999757,194
18592,Tl3 As1 F6,3.2055,2
18593,Sr4 Mn4 Sb8,0.0,62
18594,Rb4 Sm8 Cl20,0.4916999999999998,14
18595,Nd9 Se6 O6,0.0,12
18596,Rb8 Co8 Mo12 O48,0.008099999999999996,198
18597,Na3 Eu2 Ge2 Se6,0.0,12
18598,Lu2 Ta10 Ag4 O30,2.6212,127
18599,Lu12 Mg8 Si12 O48,0.0,230
18600,K4 Rb4 S8 O32,0.008000000000000007,14
18601,K4 H5 Se4 O16,0.0,2
18602,K8 Yb4 Ge16 O44,0.07259999999999989,11
18603,Er6 Sc2 S12,1.0444,11
18604,Ba2 Na1 Ce2 Ti2 Fe1 Si8 H1 O27,0.0,5
18605,Zr1 Ta1 C1 N1,0.0,160
18606,Zr4 Fe4 Mo4,0.0,38
18607,Zr2 Al3 Cr1,0.0,166
18608,Zn4 Fe1 Se5,0.0,160
18609,Zr2 V1 Ni3,0.0,166
18610,Yb1 Ag1 Mo2 O8,0.0,82
18611,Zn3 In2 O6,0.5289999999999999,160
18612,Y1 U1 Ga4,0.0,47
18613,Y1 Ho1 C4,0.0,65
18614,Zr6 V4 Ni8,0.0,2
18615,Zn3 Fe12 Co2 O24,0.2791999999999999,44
18616,Y14 Ge4 O29 F5,0.0,1
18617,V2 B4 Ru2,0.0,26
18618,Tm4 Cr1 S7,0.0,8
18619,U2 Ni2 Ge2,0.0,12
18620,Ti2 Cu1 Ni1,0.0,123
18621,Th1 Zr2 U2 O10,0.0,160
18622,Tb1 Ce1 O4,0.0,123
18623,Ta2 Ag1 S4,0.0,164
18624,Ta1 V1 C2,0.0,166
18625,Ta4 Fe1 Co1 O12,1.1825,65
18626,Sr1 Nb1 N1 O2,0.04720000000000013,123
18627,Sr4 Cu2 Mo1 W1 O12,0.0,83
18628,Sr2 Zn1 As2,0.0,187
18629,Sr2 Y1 Cr1 Cu2 O8,0.0,5
18630,Sr2 Tb1 Cu2 Ir1 O8,0.0,38
18631,Sm3 Ti4 Co1 O14,0.0,166
18632,Sc1 In1 Pd2,0.0,123
18633,Sc4 Fe6 Si2,0.0,38
18634,Sb8 I2 O11,1.2888000000000002,1
18635,Pb6 I2 F10,3.1121,36
18636,Pr2 Fe20 Si2 C1,0.0,2
18637,Nb6 Al1 Ga1,0.0,200
18638,Nd2 Fe1 Sb4,0.0,115
18639,Nd4 Ti2 Cu2 O12,0.0,14
18640,Nb6 Bi1 Te8,0.0,147
18641,Nb3 V5 B8 Ir4,0.0,6
18642,Na1 La1 S2,0.8630999999999998,123
18643,Na1 Ti3 Nb1 Cu3 O12,0.0,148
18644,Nb12 Al3 In1,0.0,47
18645,Sb4 H60 C8 N32 Cl24,3.0643,7
18646,Sb2 H10 O8 F12,3.4549,1
18647,Mn2 Re6 B4,0.0,22
18648,Mn1 Cr1 Ni4 Sn2,0.0,166
18649,Mn3 In2 Sb3 O14,0.23460000000000036,12
18650,Na4 Ca8 Zr2 Nb2 Si8 O34 F2,1.8289999999999997,4
18651,Mg1 Al2,0.0,164
18652,Mg3 Cu9 O12,0.0,25
18653,Li1 Si1 Ag2,0.0,123
18654,Lu1 Th1 B4 Os6,0.0,47
18655,La1 Ni5 H6,0.0,183
18656,La2 Ti2 Zn1 O8,2.2343,115
18657,Ir1 Os1 Ru1,0.0,156
18658,In1 Sn3 Se4,0.0,6
18659,In6 Co2,0.0,65
18660,In2 Cu1 Te3 Cl1,0.6111999999999997,1
18661,Gd1 U1 C4,0.0,123
18662,Hf4 Fe1 S8,0.0,12
18663,Hf6 Ga9 Co3,0.0,1
18664,Fe4 Te3 Se1,0.0,38
18665,Fe4 Te3 Se1,0.0,99
18666,Fe2 Mo2 As4,0.0,26
18667,Fe8 P16 Pb12 O68,0.14110000000000023,76
18668,Fe3 Si2 Ni3,0.0,47
18669,Dy2 Al2 Cu2,0.0,74
18670,Dy4 Cr1 Ge8,0.0,25
18671,Eu2 Ga4 Ge8,0.0,63
18672,Cu5 Ge2,0.0,166
18673,Cu4 Mo1 W3 O16,0.0,1
18674,Cr1 Rh1,0.0,187
18675,Cr4 Cd1 Co1 S8,0.020299999999999763,216
18676,Cr12 Sb4 As8,0.0,6
18677,Ce1 Y1 C4,0.0,12
18678,Ce1 Pr4 O10,0.0,87
18679,Ce1 Pr3 O8,0.0,166
18680,Ce3 Y1,0.0,187
18681,Ce3 Nd1 C8,0.0,123
18682,Cd8 Si2 Se6 S6,0.7380999999999998,9
18683,Ce2 Ga5 Au3,0.0,115
18684,Ca1 Zn3 O4,1.3159999999999998,8
18685,Ca2 Nd2 Ga2 O8,3.8573000000000004,36
18686,Bi2 Te1 Se2,0.43100000000000005,160
18687,Ba2 Ta1 Co1 O6,1.4585000000000004,225
18688,Ba4 Co8 Br2 O14,0.03590000000000004,5
18689,Al1 Au4,0.0,12
18690,Ag1 Sb1 Se2,0.0,123
18691,Al2 Co3 Ge1 O8,0.2984,44
18692,Cu1 Bi2 O4,0.0,139
18693,Th4 Mn8,0.0,194
18694,Ge1 Ho1 Au1,0.0,216
18695,Si5 Pt12,0.0,87
18696,S12 Ti6 Fe2,0.0,163
18697,S10 Fe2 Ba2 Sm4,0.0,140
18698,O8 Ni2 Nd4,1.7465000000000002,64
18699,O32 Zr4 W8,3.6052,198
18700,O6 Ca1 Sr2 Mo1,2.2555,225
18701,C2 O6 Fe2,0.0,167
18702,O6 Ca1 Sr2 W1,3.2261999999999995,225
18703,Ge2 Dy1 Pt2,0.0,139
18704,C4 W8,0.0,60
18705,Ga1 Sm3,0.0,221
18706,O10 Na2 Ti3 Gd2,1.7123999999999997,139
18707,S10 Fe2 U4,0.0005000000000006111,15
18708,Yb4 Ni4 B16,0.0,55
18709,S8 Zn2 In4,0.19399999999999995,164
18710,B4 Rh8,0.0,62
18711,H8 C4 N6 S4 Cd1,3.2788,2
18712,O6 Co2 Ba1 La1,0.03399999999999981,123
18713,Li1 Cu1 O2,0.0,166
18714,Li4 Bi8 P12 O48,0.24260000000000015,7
18715,Li2 Nb2 P8 O24,0.05370000000000008,15
18716,H72 B40 N8,3.7727,62
18717,B2 Al2 Ru3,0.0,65
18718,Mg1 Ni2 Sb1,0.0,225
18719,O48 P16 V4,0.0,14
18720,Er16 Se24,1.6222000000000003,122
18721,Na4 O6 Tb2,0.0,15
18722,Fe12 Mg6 O24,0.9676999999999998,1
18723,In2 Sr1 Te4,1.0210000000000004,87
18724,S8 Sr2 Y4,2.1883,122
18725,Ce8 Nd8 O28,1.7118000000000002,1
18726,S4 Fe2 Tl2,0.0,12
18727,Gd4 Mg2 S8,1.3708999999999998,122
18728,Co4 Cu2 O8,0.0,160
18729,Si2 Sm1 Pt2,0.0,139
18730,Li6 O24 P6 Ni4,0.0,15
18731,Li5 O56 P16 Ni9,0.0039000000000000146,1
18732,O8 Cu2 W2,0.11249999999999982,2
18733,Mn4 P4 O16,0.8654,4
18734,Cs4 S8 F8 N4 O16,5.4829,14
18735,O10 V4,1.396,15
18736,Sn2 O2,1.4074,31
18737,O2 Mg2,3.2870999999999997,186
18738,O6 Ti1 Bi2 Zn1,0.8966999999999992,99
18739,Ca4 Ta8 O24,2.4404,200
18740,Sr32 Ga8 N24 O8,1.1305,61
18741,Ba6 Hg6 O12,2.1654,182
18742,Cd8 S8 O24,3.4225999999999996,14
18743,Si8 O16,5.317699999999999,118
18744,Si24 O48,5.6388,148
18745,Sc6 O9,3.4806,12
18746,Ba42 Ge4 O10,0.0,227
18747,Zn8 Ga8 N8 O8,0.0,1
18748,K8 Cd4 N16 O32,2.4568,62
18749,Zn2 Bi12 P4 O28 F4,2.5947,15
18750,Cs2 Tm2 Co2 S6,0.0,63
18751,Ba6 Cr6 O18,0.0,194
18752,V6 Cu12 Bi6 O36,0.01330000000000009,2
18753,W4 Cl12 O4,1.7189999999999999,136
18754,Ba2 La2 Mn1 W2 O12,1.5055000000000005,166
18755,Mn1 H10 S2 N4 O8,4.3533,2
18756,Na6 Fe4 Mo10 O32,0.0,164
18757,Ti4 Mn2 O8,0.0,227
18758,Tb2 Cl2,0.0,166
18759,Lu3 Mn3 Ga2 Si1,0.0,189
18760,Mn4 H60 C18 N6 Cl14,1.7453,186
18761,In2 Si4 As2 H48 C16,3.4387,2
18762,K1 Br1,3.8776,221
18763,Zr6 Cl12,0.0,148
18764,O8 P2 Ti2,0.06289999999999996,63
18765,Ga8 H96 C32 N8 Cl24,3.9311999999999996,205
18766,Mn12 Sn8,0.0,62
18767,Tb3 Mn4 Ge4,0.0,71
18768,Ce20 Ni4 Ge8,0.0,130
18769,Sn12 H8 O16,2.2044999999999995,9
18770,V3 H5 O8,0.6708000000000003,1
18771,Nb4 H4 O12,2.5186,1
18772,Ti6 H4 O14,2.7106,1
18773,Ce4 Cu4,0.0,62
18774,F160 Se32 Sb32 Te16,1.7292,61
18775,H16 C4 I2 N2,4.3361,12
18776,Cu3 Sn4 Pb1 O12,0.6745999999999999,8
18777,S2 Nb2,0.0,194
18778,Rb10 Hf2 Fe2 Mo12 O48,3.2284,173
18779,Tl8 Cd3 N42,2.6689,2
18780,Te4 S8 N6 Cl18,2.1287000000000003,2
18781,Li17 Mn4 As8,0.0,1
18782,Ag6 S2 I2,0.42490000000000006,1
18783,P4 S12 K4 Fe2,0.21560000000000024,14
18784,Li2 B2 H8,5.6480999999999995,1
18785,K1 B1 F4,7.3125,1
18786,Ag8 Ge1 Te6,0.0,1
18787,Na16 Mo8 C24 Se8 N24,1.6661000000000001,141
18788,Na8 Ga42 O67,0.7827999999999999,1
18789,Fe2 Ni1 Se4,0.0,1
18790,Cr2 P8 O24,0.0025000000000000577,15
18791,Ba2 La2 Mn2 Ru2 O12,0.0,7
18792,Zn2 H8 Cl4 O12,2.5049,14
18793,Ca8 H8 S8 O28,5.0825,60
18794,Mn10 Fe20 O40,0.0,1
18795,Ni2 O18 P6,0.29499999999999993,2
18796,Li4 Cr8 P12 O52,1.1477,14
18797,Ga8 P8 H36 N4 O44,3.1938,14
18798,Fe16 Cu8 O32,0.0,8
18799,Ca8 V4 Fe16 Bi4 O48,1.1137000000000001,2
18800,Li3 Nb4 O12,0.0,146
18801,Sn1,0.0,229
18802,Be4 H16 N4 F12,6.1675,19
18803,Na8 Co8 P24 H64 O80,3.1353,61
18804,Cr4 H40 S4 N4 O40,2.2767999999999997,14
18805,Mg6 Te8 O22,2.7500999999999998,1
18806,Ba4 Sr4 I16,3.2504999999999997,14
18807,Li4 Cu4 F10,0.0,15
18808,Cu8 O2 F12,0.0,137
18809,Li1 Cu1 S2,0.0,12
18810,Tb2 Ce2 O8,0.0,15
18811,Li8 Sb2 S8,0.0,63
18812,Ba1 Y2 F8,6.276,123
18813,Y2 Lu2 O6,3.3369,194
18814,Hf3 N4,1.0903999999999998,166
18815,Hf8 N8 O4,1.0665999999999993,1
18816,Hf8 N8 O4,2.436,1
18817,Tl4 Pb4 O14,0.0,227
18818,Ag4 Ge2 O8,0.0,70
18819,Al8 O12,5.4924,163
18820,Ca2 Ti6 N2 O11,1.9882999999999997,1
18821,Dy2 H2 O4,4.159000000000001,194
18822,Hf6 N6 O3,2.0711000000000004,12
18823,Li4 Sn4 P4 O16,3.8739,33
18824,Li2 Bi2 B4 O12,0.9964,14
18825,Li4 V6 S12,0.0,193
18826,Ca2 Ti6 N2 O11,2.0854000000000004,1
18827,Li2 Ti7 O15,1.4827999999999997,12
18828,Ti8 O16,2.4317,62
18829,Li4 Ag4 F12,0.031100000000000017,2
18830,Li4 Si12 Bi4 O32,3.5281000000000002,15
18831,Li12 Cu2 S8,0.0,137
18832,Li2 Nb2 P8 O24,0.17820000000000036,1
18833,Li6 Sn4 P14 O42,4.3251,2
18834,Li6 Ti4 P6 O24,0.1153000000000004,15
18835,Li12 Sn12 P12 O48,3.3427,14
18836,Li2 Ti2 P8 O24,0.02300000000000013,15
18837,Sb16 Cl4 O22,2.1307,14
18838,Ti2 Cu6 O8,0.13450000000000006,14
18839,Ba8 In6 O17,0.7284999999999999,1
18840,Li8 Cu8 F32,0.3093999999999999,14
18841,Li4 Cu2 Si2 O8,0.0,7
18842,Li6 Cu3 Si3 O12,0.5165000000000002,152
18843,Li4 Cu4 P4 O16,0.07699999999999996,33
18844,Li8 Cu8 P8 O32,0.24239999999999995,14
18845,Li8 Sb4 P12 O40,3.8109,14
18846,Li2 Bi2 P8 O24,4.6826,15
18847,Li2 Bi6 P12 O40,3.635,20
18848,Nb10 O24 F2,0.0,51
18849,Li4 Cu4 C4 O12,2.0307999999999997,7
18850,Zn2 H40 S4 N4 O28,3.9923,14
18851,Li16 Sb16 F64,3.6756,1
18852,Li2 Te2 H2 O8,1.4912,4
18853,Li4 Cu4 F12,0.0,8
18854,K3 Li3 Sb3 P6 O24,0.27170000000000005,1
18855,Li8 Fe4 B4 O16,2.8278,14
18856,Li4 Mn1 Cr1 W2 O12,0.6985999999999999,1
18857,Li4 Cr4 P4 O16,2.8257000000000003,4
18858,Li12 Mn6 Si12 O36,2.6073999999999997,31
18859,Li40 Fe10 P20 O90,0.044300000000000006,13
18860,Li8 Mn8 P8 O40,0.6677000000000002,33
18861,Li14 Mn14 P16 O68,1.0261999999999998,14
18862,Li4 Mn4 P4 O20,0.0,62
18863,Li4 Fe2 Co4 O12,0.0,64
18864,Mn2 Ni3 P6 W1 O24,0.02180000000000004,146
18865,Li4 V3 Si1 O10,1.4529,1
18866,Li4 Co4 P4 O16,2.8051,15
18867,Li1 V2 Co1 O6,1.0274,1
18868,Li4 B8 Sb4 O24,3.1674999999999995,14
18869,Li4 Cu16 P12 O48,0.0,6
18870,Li8 Ni8 P8 O32,3.1651,61
18871,Li3 V5 O12,1.1195999999999997,1
18872,Li14 Sb4 P14 O48,4.0418,13
18873,Ta4 Cr4 O16,1.9662000000000002,60
18874,Li4 Fe4 P16 O48,2.1852,20
18875,Li8 Fe8 Si12 O36,2.9576000000000002,14
18876,Li8 Fe4 Si4 O16,2.6487,14
18877,Mn12 O14 F10,0.0,1
18878,Li4 Fe4 P16 O48,2.4819,14
18879,Li6 Ti3 Mn9 O24,0.9567000000000001,2
18880,Li2 Fe2 Si2 O8,3.0239,148
18881,Li1 Mn2 Ni1 O6,0.7591999999999999,2
18882,K8 Li6 Mn4 O16,0.5337000000000001,7
18883,Li4 Mn4 P12 O36,4.5887,19
18884,Li6 Nb1 Co3 P6 O24,0.3901999999999999,1
18885,Li8 Mn6 P6 O24 F2,3.5760000000000005,218
18886,Li1 V2 Si2 O8,0.9173,1
18887,Li1 Mn3 Ni1 O8,0.11060000000000025,2
18888,Li6 Mn8 P6 H24 O38,2.5572,161
18889,Li8 Mn8 F24,3.4187000000000003,14
18890,Fe6 O3 F9,1.3483,5
18891,Li4 Ni4 P4 O16,3.1413,33
18892,Li3 Fe1 Co3 O8,0.09799999999999986,12
18893,Li4 Mn4 Co2 P6 O24,0.7424999999999997,5
18894,Li4 Ni4 P4 O16,3.1501,2
18895,Fe18 O18 F18,0.0,6
18896,Fe12 O12 F12,0.38439999999999985,6
18897,Mn12 O14 F10,0.0,1
18898,Li2 V1 Ga3 O8,2.511,1
18899,Li16 V4 P8 O36,3.4928999999999997,33
18900,Li6 V2 P6 O22,1.4117,2
18901,Li8 Mn4 F16,3.7436999999999996,74
18902,K8 Li13 Fe4 O16,1.7423999999999997,1
18903,Li8 V2 P12 O36,3.0291,15
18904,Li4 Mn1 Sb2 W1 O12,1.1039000000000003,1
18905,Li4 Fe2 P8 O26,0.030299999999999994,2
18906,Fe6 C6 O21,2.1609,5
18907,Fe4 P4 O16,2.3689,14
18908,Fe18 O18 F18,0.0,6
18909,Fe2 P6 O18,2.0249,2
18910,Sr4 Li4 V4 P4 O24,1.9488000000000003,14
18911,Mn12 O4 F24,0.4953,1
18912,Mn1 Ni3 O4,0.9829999999999997,65
18913,La7 Mn8 O23,0.0,6
18914,Mn12 O2 F22,0.8940000000000001,8
18915,Mn12 O14 F10,0.0,1
18916,Mn12 O7 F17,0.0,1
18917,Mn12 O7 F17,0.0,1
18918,Mn12 O10 F14,0.0,1
18919,Na2 Mn16 O32,0.0,59
18920,Mn12 O7 F17,0.0,1
18921,Li2 Co4 O2 F6,1.7482999999999997,12
18922,Li4 V4 O10 F4,2.4443,2
18923,Li8 V4 O8 F8,1.6461000000000001,3
18924,V6 O7 F5,1.3214000000000001,1
18925,Li6 V4 O8 F4,0.8928,11
18926,Li2 V1 F6,1.9285,12
18927,Mn8 O8 F8,0.0,7
18928,Li4 Mn4 F14,0.11670000000000003,2
18929,Li2 Fe8 B8 O24,1.4752000000000003,1
18930,Li1 Fe8 B8 O24,1.3932999999999998,1
18931,Li1 Fe8 B8 O24,1.2449999999999999,1
18932,Li1 Fe8 B8 O24,1.3962,1
18933,Li4 Fe3 O1 F8,3.3168,1
18934,Mn12 O10 F14,0.0,1
18935,Li32 Co8 O32,0.0,7
18936,Li2 Fe8 B8 O24,1.3741,1
18937,Li3 Fe8 B8 O24,1.3091000000000002,1
18938,Li7 V4 O11 F1,1.3426,1
18939,Li8 V4 C8 O24,2.6087,5
18940,Li4 Mn1 O1 F5,0.5609,1
18941,Li9 Fe4 B8 O24,0.0,1
18942,Li1 Ni3 O3 F1,2.1894,123
18943,Li2 Mn4 F14,1.9232,13
18944,Li2 V2 C4 O12,1.8899,4
18945,Li4 Mn3 Cr3 Cu2 O16,0.0,1
18946,Li4 V4 O8 F8,2.0856,3
18947,Li2 Si4 Ni5 O14,3.0304,2
18948,Mn6 O7 F5,0.059900000000000064,1
18949,Ni6 O2 F10,0.09420000000000006,2
18950,V3 O5 F1,0.9374000000000002,1
18951,Li2 V3 O4 F4,1.2204,6
18952,Li2 Ni2 P2 O8,3.3826,43
18953,Li1 Mn1 P1 O4,3.3411,82
18954,Na6 Mn16 O32,0.0,59
18955,Li3 Fe8 B8 O24,1.4945000000000002,1
18956,Na6 W10 O33,3.3689,2
18957,Li9 Ti5 Si2 O16,0.0,2
18958,Ba8 In8 O20,0.4077000000000002,39
18959,Ba2 Ca7 I18,3.3846,2
18960,Mg3 Cu9 Si16 O48,0.14360000000000017,2
18961,Li24 Cu24 S24,1.3302,60
18962,Li8 Fe8 P8 O32,3.2165,14
18963,Li4 Mn3 O1 F11,1.2576,1
18964,Li2 Fe2 Si1 O6,2.4928,21
18965,Li4 Mn3 O1 F11,1.4098000000000002,1
18966,Li2 V2 Si2 O8,0.8512999999999993,74
18967,Li4 Mn2 O4 F2,0.8420999999999998,63
18968,Mn4 Cr2 O12,0.7083999999999999,64
18969,Li4 Mn8 O4 F12,1.5709000000000002,62
18970,Li6 Mn4 F18,2.0418,1
18971,Li2 Mn4 P4 O16,0.0,7
18972,Li5 Fe5 Si7 O24,2.3729999999999998,1
18973,Mn6 O4 F4,0.8096000000000001,14
18974,Li12 Co4 P4 C4 O28,2.7656,14
18975,Li4 Mn8 P8 O32,0.0,29
18976,Li4 Mn8 O12 F4,0.4117000000000002,9
18977,Li4 Fe4 C4 O12 F8,2.1772,62
18978,Li4 V4 Si12 O32,2.1659,14
18979,Li4 Mn2 C4 O12,3.6796000000000006,1
18980,Li14 Mn2 O8 F4,1.6063,1
18981,Li8 Fe4 B8 O24,0.0,14
18982,Li4 Mn4 Si6 O20,1.2624000000000002,9
18983,Li12 Co4 P4 C4 O28,2.7427,14
18984,Li3 Co13 O16,0.0,2
18985,Li2 Ni2 Sn2 O8,0.4621999999999997,15
18986,Fe4 O4 F4,1.7423999999999997,14
18987,Cr4 O4 F4,1.4562,14
18988,Sc2 In2 O6,2.1968,194
18989,Ba8 Y4 I28,2.638,14
18990,Y8 Te4 O24,1.6015000000000001,15
18991,Sr4 La4 Cl20,4.1075,14
18992,Li6 Si2 Bi2 C2 O14,3.4372000000000003,11
18993,Li8 Bi8 B8 O28,3.1397,14
18994,Li8 Bi8 B16 O40,3.5923000000000003,33
18995,Li12 Bi4 B8 O24,3.9539000000000004,14
18996,Li4 Bi4 B8 O20,3.0193,14
18997,Ga20 Si4 O38,2.0816999999999997,36
18998,Mg4 Sn4 O12,2.0089999999999995,62
18999,Y4 Bi4 O14,0.0,227
19000,Li8 Ti8 Mn8 Ni2 O36,0.9712000000000001,55
19001,Y16 Ga8 O36,3.427,60
19002,Li6 V4 S4 O16 F12,1.0314,1
19003,Lu2 W2 O8,2.0645,88
19004,Li4 Cr3 Ni2 Sb3 O16,0.5766999999999998,8
19005,Li4 Al2 Ni2 O8,1.9405999999999999,7