Index,Composition,bandgap,spgN
22051,Li6 Ta14 O38,2.8734,176
22052,Li3 Ti1 Cu4 O8,0.0,12
22053,Y8 W8 O36,1.9714999999999998,33
22054,Li4 Cr4 O14,2.3269,2
22055,K2 Li4 Fe2 O6,2.033,1
22056,Y8 W8 O36,2.3369000000000004,20
22057,Cu2 Ni8 O10,0.0,12
22058,Li9 V12 Cr7 O48,0.47099999999999986,1
22059,Li9 V12 Cr7 O48,0.008600000000000052,1
22060,Li4 Fe2 Sn2 P4 O16,3.1064999999999996,11
22061,Li3 Fe1 Sb4 O12,0.0,1
22062,Ba4 Y2 Cu5 O14,0.0,8
22063,Li4 Mn3 V5 O16,0.7982999999999998,1
22064,Li4 Cr5 Fe3 O16,0.0,8
22065,Li4 Ti1 Co3 O8,0.9867000000000001,1
22066,Li3 V2 Co1 O6,0.0,12
22067,Cr1 Co5 O12,0.4535999999999999,12
22068,Li4 V2 P4 O14,2.6717999999999997,15
22069,Cr12 Cu8 O48,0.12879999999999991,60
22070,Li4 Mn4 F12,3.6033,163
22071,Li4 Cr6 Ni2 O16,0.7109999999999999,186
22072,Ti1 Sn1 O4,2.254,119
22073,Cr1 Sn3 P6 O24,0.4738,146
22074,Ni6 O2 F10,0.6937,1
22075,Li3 Fe4 W1 O8,1.1457000000000002,12
22076,Li3 Mn4 O8,0.0,166
22077,V2 Sb2 P4 O16,1.9270999999999998,11
22078,Cr1 Sb1 O4,1.4469999999999996,119
22079,Li9 Cr3 P6 O24,2.7229,146
22080,Li12 Mn4 V4 P12 O48,0.0,5
22081,Li3 Fe8 B8 O24,1.6997,1
22082,Ti2 Al2 O6,0.0,148
22083,Li2 V3 Cu1 O8,0.0,160
22084,Li6 Co2 P2 C2 O14,2.8354,4
22085,Li5 Cr2 Co3 O10,0.0,2
22086,Li4 Cr4 P16 O48,2.7592999999999996,14
22087,Li6 V3 Sb3 O16,1.1404,1
22088,Li8 Co2 O8,1.2202000000000002,6
22089,Li2 V4 O8,0.0,74
22090,Zr12 N12 O6,1.6695000000000002,12
22091,V12 O18,0.9127999999999998,11
22092,Li12 V6 F24,0.31779999999999964,148
22093,Fe3 Cu2 Te1 P6 O24,0.0,146
22094,Li6 Mn3 Sn1 P6 O24,0.35250000000000004,1
22095,K2 Li2 Ni2 O4,1.9837,12
22096,Li4 Fe8 F20,3.0921000000000003,1
22097,Li8 V4 C8 S2 O32,1.9549999999999998,70
22098,Li12 V4 C8 S2 O32,3.0542999999999996,203
22099,Li2 Fe4 F14,3.6311,13
22100,Li4 Fe8 O4 F20,1.7394999999999998,7
22101,Ba12 Y8 Br48,3.7767999999999997,14
22102,Li4 Sn2 P4 H3 O16,0.27059999999999995,1
22103,Li16 Fe8 F32,3.5784000000000002,14
22104,Li6 Fe6 F18,3.4589999999999996,15
22105,Li3 Fe4 O3 F9,1.9361000000000002,1
22106,Mn8 O8 F8,0.0911000000000004,1
22107,Li8 Cr4 P16 O48,3.4608,14
22108,Li2 Fe2 F6,3.0807,1
22109,Li4 Fe4 F16,3.3818,14
22110,Li6 Fe6 F24,2.7728,2
22111,Mn8 O13 F3,0.0,1
22112,Mn6 O5 F7,0.13250000000000006,1
22113,Li4 Fe4 F16,2.9978,122
22114,Li4 Fe1 Te3 O12,0.0,1
22115,Li4 Fe4 F12,3.2798000000000003,14
22116,Li4 Cr2 P8 O24,3.4909999999999997,9
22117,Mn6 O5 F7,0.0,1
22118,Mn7 Cr1 P12 O48,0.0,1
22119,Li4 Ti3 Fe2 Sn3 O16,1.2871000000000001,1
22120,La4 Sm4 O12,4.243500000000001,33
22121,Li4 Mn4 F20,2.1629000000000005,14
22122,Li16 Fe8 F32,3.6247,7
22123,Li6 Fe2 O4 F4,2.5174000000000003,13
22124,Li6 Mn2 V2 P6 O24,0.29890000000000017,5
22125,Fe10 O11 F9,0.3127,6
22126,Li3 Mn2 Co2 O8,0.2149000000000001,2
22127,Li5 V6 O5 F19,0.7836,1
22128,Mn8 O13 F3,0.0,1
22129,Li8 Co4 B4 O16,1.4436000000000002,62
22130,La12 B20 O48,3.8196,62
22131,Gd4 O4 F4,3.2384,1
22132,Fe10 O11 F9,0.0,1
22133,Li6 Fe6 P6 C6 O42,0.0,1
22134,Li12 Mn4 V4 P12 O48,0.0051000000000001044,5
22135,Na8 Bi4 P2 C8 O32,0.0695,70
22136,Gd8 W8 O36,1.8332000000000002,33
22137,Fe6 O4 F8,1.2227000000000001,5
22138,Mn6 O7 F5,0.0,1
22139,Li4 Mn4 P8 H4 O28,4.0102,2
22140,Fe10 O6 F14,1.2638,1
22141,Dy4 Ge4 O14,3.4549999999999996,11
22142,Li4 Mn8 B8 O24,0.3817999999999999,1
22143,Li12 Cu4 C8 S2 O32,0.0,203
22144,Mn12 O5 F19,0.16710000000000003,1
22145,Li4 Ti3 V3 Te2 O16,0.6124999999999998,1
22146,Li2 Cr3 Cu1 O8,0.0,166
22147,Mn8 O13 F3,0.0,1
22148,Li5 Mn10 B10 O30,0.3164,1
22149,Na12 Fe4 O16,0.0,62
22150,V6 O2 F22,1.8989,2
22151,Li40 Co8 O32,1.5191999999999999,61
22152,Li4 Mn8 B8 O24,0.4071,1
22153,Na2 Fe2 O6,0.7941999999999999,148
22154,Sm2 H20 S6 N6 O22,5.4745,2
22155,Sm2 H16 S6 N6 O20,5.3137,2
22156,V4 O8 F4,1.1084,2
22157,Li1 V4 O5 F7,0.8755,1
22158,V3 Cr2 Ni1 P6 O24,0.0,146
22159,Mn10 O5 F15,0.0121,1
22160,Li4 Cr3 Co3 W2 O16,0.0,8
22161,Fe10 O9 F11,1.3258999999999999,5
22162,Li4 Fe1 O1 F4,4.068099999999999,87
22163,Li17 Cr2 O12,0.7621,1
22164,Li4 Cu2 P8 O24,0.1785000000000001,14
22165,Zn4 P8 H60 C16 N4 O32,4.7495,7
22166,Bi2 Te1 O2,0.0,1
22167,Li6 Fe2 P2 C2 O14,3.9590999999999994,1
22168,Li8 Mn8 Si12 O36,3.0765000000000002,62
22169,Li4 Cr4 P4 O20,0.1292000000000002,62
22170,Mn8 O13 F3,0.0,1
22171,Li2 Fe8 B8 O24,1.6951,1
22172,Cr8 P8 O32,1.9955,14
22173,Li1 Fe8 B8 O24,1.7294999999999998,1
22174,Li6 Mn12 B12 O36,0.5585,9
22175,Tb10 Ti10 O34,0.0,31
22176,K8 Li9 Cr4 O16,0.7693000000000003,1
22177,Mn12 O14 F10,0.0,1
22178,Na12 Co4 B8 S2 O32,0.14069999999999983,203
22179,Li4 Mn3 Co2 Sb3 O16,0.0,8
22180,Na8 Fe4 Si24 O60,0.0,64
22181,Mn6 P6 O24,0.0,1
22182,Li8 Ni8 P8 O32,2.9905,14
22183,Li4 Co8 O4 F12,1.7796,1
22184,Li4 Mn3 Cu3 W2 O16,0.0,1
22185,Li9 Cr19 O48,0.08240000000000003,1
22186,Fe10 O9 F11,0.9673000000000003,1
22187,Fe10 O9 F11,1.1675999999999997,1
22188,Ni6 O2 F10,0.6954,1
22189,C2 Rh1 Nd1,0.0,38
22190,Ga4 H4 O8,2.8219,62
22191,Li4 Ni7 O2 F14,2.7778,12
22192,Li3 Mn3 P3 O12,3.0953,180
22193,Li5 Mn1 Si2 O8,0.5468000000000001,5
22194,Cr2 Co6 O16,0.47109999999999985,9
22195,Fe2 Sb2 P4 O16,1.3378,11
22196,Li2 Mn1 V4 Ni1 O12,1.3689,5
22197,Li14 Sn9 P16 O56,2.9789000000000003,2
22198,Li12 Co12 P12 O48,2.904,181
22199,Hf2 Br6,0.0,194
22200,Hf1 Cu3,0.0,225
22201,Tm1 Hf1 Os2,0.0,225
22202,Tm2 Mg1 Ru1,0.0,225
22203,Li4 Cu4 F14,0.0,1
22204,Rb2 U5 P4 O28,0.015000000000000013,8
22205,Na1 Cu3 O4,0.0,65
22206,Ru4 O8,0.0,205
22207,Si6 W3,0.0343,180
22208,Cu6 Si6 H12 O24,0.059499999999999886,148
22209,C12 Tm8,0.0,220
22210,Zr1 Fe1 Te1,1.155800000000001,216
22211,Sm1 Ho1 Ru2,0.0,225
22212,Lu2 Al1 Tc1,0.0,225
22213,Nd3 Th1,0.0,139
22214,In3 Ga1,0.0,225
22215,Li1 Tm2 Au1,0.0,225
22216,Li1 Np1 Ir2,0.0,225
22217,Yb2 Nd6,0.0,194
22218,Ca2 Ac6,0.0,194
22219,Cr1 Ga2 S4,0.0,8
22220,Cs2 Rb1 N1 F6,2.9602,225
22221,Cs2 Na1 N1 F6,2.8011999999999997,225
22222,Ag8 W4 S16,0.8692999999999997,62
22223,La7 Sc1 Al8 O24,2.5344999999999995,221
22224,Pr1 Rh1 C2,0.35460000000000047,38
22225,Ca3 V2 Bi2 O12,0.5779000000000001,1
22226,Ca1 Mn2 Si4 O12,0.4466999999999999,5
22227,Zn2 Co4 P8 O28,0.5617999999999999,7
22228,V12 O28,1.4381,62
22229,Ca2 Bi2 F10,3.9935,1
22230,Y16 Cu6 Si6 S42,0.0,4
22231,Ca1 Ti4 O8,0.0,166
22232,Ca2 Ni4 O8,0.5512999999999999,141
22233,Y16 Cu24 O60,0.8247,4
22234,Mg6 Sn4 O14,2.8685,36
22235,Ca2 V2 F8,2.6739,15
22236,Mn2 Zn2 F8,3.2142,1
22237,Ca4 Bi2 Sb2 O12,1.1000999999999994,11
22238,Ca4 Fe4 O10,0.7892000000000001,55
22239,Ca4 Co4 O12,0.0,62
22240,Ca12 Ge12 Sb8 O48,2.2504,230
22241,Si4 Sn2 O12,3.3235999999999994,15
22242,Ca4 Cu2 W2 O12,0.0,14
22243,Zn4 Ag4 As4 O20,0.4977,19
22244,Ca4 Sn2 Ir2 O12,0.0,14
22245,Cs1 K1 I1 Cl1,4.0989,123
22246,Mg1 Mn2 O4,0.5051999999999999,10
22247,Cr1 Co3,0.0,221
22248,Mg1 Te1,0.43430000000000035,225
22249,Na12 Mn8 Ge12 O48,0.0,167
22250,Mn1 Sb1 Ir1,0.0,216
22251,Mg3 Zn1,0.0,25
22252,Mg6 Cd1 Bi1,0.0,38
22253,Er2 Te4,0.0,129
22254,Ba32 Ga8 N24 O8,1.1839,61
22255,Mg6 Zn1 Ga1,0.0,38
22256,Mg6 Al1 Zn1,0.0,38
22257,Mg15 Mn1,0.0,187
22258,Hf1 Mg14 Bi1,0.0,38
22259,Li1 Mg14 Si1,0.0,38
22260,Mg14 Zr1 Bi1,0.0,187
22261,Na1 Mg14 Zn1,0.0,187
22262,Ce1 Mg14 Zr1,0.0,38
22263,Y1 Mg14 Al1,0.0,38
22264,Te2 Mo2 W2 Se4 S2,0.0,156
22265,Te2 Mo1 W3 Se4 S2,0.0,156
22266,Te2 W4 Se2 S4,0.0,156
22267,Te2 W4 Se2 S4,0.0,156
22268,Te2 W4 Se2 S4,0.0,156
22269,Te2 W4 Se2 S4,0.0,156
22270,Te2 Mo1 W3 Se4 S2,0.0,156
22271,Te2 W4 Se2 S4,0.0,156
22272,Te2 W4 Se2 S4,0.0,156
22273,Te2 Mo1 W3 Se4 S2,0.0,156
22274,Te2 Mo2 W2 Se4 S2,0.0,156
22275,Te2 Mo1 W3 Se4 S2,0.0,156
22276,Te2 Mo2 W2 Se4 S2,0.0,156
22277,Te6 Mo3 W1 S2,0.009300000000000086,156
22278,Te6 Mo3 W1 S2,0.0,156
22279,Te2 Mo1 W3 Se4 S2,0.038599999999999746,156
22280,Mg6 Cd1 Ni1 O8,1.5191,123
22281,Mg6 Zn1 Co1 O8,1.7431999999999999,123
22282,Mg14 V1 Cd1 O16,0.7793000000000001,47
22283,Mg14 V1 Cu1 O16,0.0,123
22284,Mg30 V1 Sn1 O32,1.6429,123
22285,Mg30 Co1 Bi1 O32,1.2084000000000001,123
22286,Mg30 Cu1 Sn1 O32,0.05290000000000017,123
22287,Y1 Mg30 Fe1 O32,0.0,123
22288,Y1 Mg30 Mn1 O32,0.40500000000000114,123
22289,Y1 Mg30 Mn1 O32,0.4046000000000003,123
22290,Mg2 Al6,0.0,194
22291,Ce6 Mg6,0.0,38
22292,Mg4 Co8 P8 O32,2.1683999999999997,1
22293,Zn1 Ni4 O8,0.2625000000000002,166
22294,Ti4 Zn4 As8 O28,2.7883999999999998,14
22295,Mg4 Cu4 Ge8 O24,0.02289999999999992,14
22296,Ca2 Sn2 Ge4 O12,1.8527,15
22297,Zn2 Sn4 O10,0.8464,63
22298,Mg4 Ni4 Mo4 P8 O36,0.0,2
22299,Mg4 Mn4 Si16 O40,3.0860000000000003,130
22300,Ca2 Sn4 P4 O20,2.4987000000000004,43
22301,Ti2 Zn2 Cu2 P6 O24,0.0,161
22302,Ca4 Ag4 Bi4 O20,0.9933,14
22303,Mg4 Co4 Bi4 O20,0.4618000000000002,14
22304,Zn4 Fe4 Bi4 O20,0.14090000000000003,14
22305,Zn2 Cu4 O8,0.0,160
22306,Ti8 P8 O36,1.9456000000000002,62
22307,Ca4 Ti8 P8 O36,0.0,62
22308,Y1 V4 Cu3 O12,0.0,2
22309,Sr4 Y2 Cr4 Ga2 O14,1.0365000000000002,46
22310,Sr4 Y2 Al2 Ni4 O14,0.5647000000000002,46
22311,Mg4 Ag8 O16,0.49270000000000014,57
22312,Ca6 Cr12 O24,1.0032,156
22313,Eu1 Cr2 As2,0.0,139
22314,Sr3 Ca5 Mn4 Fe4 O24,0.0,8
22315,Ca4 Mn4 O10,0.0,46
22316,Sr5 Ca3 Fe2 Co6 O24,0.0,6
22317,Sr4 Ca28 Mn28 Fe4 O80,0.0,1
22318,Sr6 Ca2 Co7 Cu1 O24,0.0,35
22319,Zr4 Cu2,0.0,12
22320,Sr4 Ca28 Ti4 Mn28 O80,0.0,1
22321,Ce2 Fe2 Se2 O3,0.0,139
22322,Na2 Ca2 H6,2.1679,2
22323,Ni3 P3 Rh3,0.0,38
22324,Te4 Pb4,1.1150000000000002,62
22325,Li6 Mn8 O16,0.0,12
22326,Cs4 Se2,1.5931,166
22327,Ho2 Fe2 Ge4,0.0,63
22328,Yb2 Mn2 Sb4,0.0,139
22329,Sr8 Ti8 O20,0.0,62
22330,Mn2 Ge4,0.0,140
22331,Mg6 Sn6,0.0,5
22332,Mg1 Sn5,0.0,189
22333,Sr2 Mg6,0.0,139
22334,Mg1 Ti5,0.0,187
22335,Mg8 Ga4,0.0,12
22336,Mg4 Ga8,0.0,38
22337,Mg1 Sn3,0.0,221
22338,Ce4 Mg8,0.0,38
22339,In2 Ga2 Se4,0.07129999999999992,140
22340,Ce16 Zr16 O64,1.6890999999999998,227
22341,H24 C4 N4 Cl4,4.8567,57
22342,I2 N4,0.0,140
22343,K1 Mg30 Ti1 O32,0.0,123
22344,Sr5 Ca3 Mn6 Fe2 O24,0.0,6
22345,V4 F18,0.597,158
22346,V4 Cr1 Ni1 O12,0.0,5
22347,Ti2 Co6 O16,0.9220999999999999,9
22348,Ti3 Nb1 Cr2 P6 O24,0.0,146
22349,Na1 V13 O18,0.6665000000000001,148
22350,Mg4 Al8,0.0,141
22351,Sr4 F8,6.3512,62
22352,Fe4 Co4 Si4,0.0,62
22353,Rb6 Ni2 O4,1.2476,136
22354,Er1 Mo6 Se8,0.0,148
22355,Tb4 Fe3 B6,0.0,166
22356,Co2 B4 O8,2.4261999999999997,15
22357,Ba1 Y1 Fe4 O7,0.0,82
22358,Li2 V2 Cu2 O8,0.08400000000000007,74
22359,Cu4 Sn4 Pd8,0.0,47
22360,Mn4 Fe2 Re2 O12,0.0,14
22361,Ni5 As2 O12,0.0,12
22362,Ca1 Mn3 V4 O12,0.0,204
22363,Rb3 Ce1 Cl6,0.34620000000000006,225
22364,Rb2 Cu1 Sb1 I6,0.13239999999999963,225
22365,K2 Li1 Nd1 F6,6.379099999999999,225
22366,K3 Y1 Cl6,4.5616,225
22367,Tb1 K3 Cl6,4.5486,225
22368,K2 Na1 Nd1 Br6,3.8830999999999998,225
22369,K2 Ag1 Sb1 I6,0.3809999999999998,225
22370,K2 Rb1 Sc1 F6,5.8456,225
22371,K3 Dy1 Cl6,4.561,225
22372,K3 V1 F6,0.0,225
22373,K2 Rb1 Ir1 F6,2.1696,225
22374,Cs1 Rb2 Tl1 F6,3.5274,225
22375,K2 In1 Sb1 I6,0.4658000000000002,225
22376,K2 Tl1 Hg1 Cl6,0.0,225
22377,K2 In1 Cu1 Br6,0.0,225
22378,Rb2 In1 Hg1 F6,0.0,225
22379,Cs2 Tl1 Au1 F6,0.0,225
22380,Cs2 Rb1 In1 I6,1.3972,225
22381,Cs2 Rb1 Al1 Br6,3.2264,225
22382,Cs3 Al1 I6,2.1069999999999998,225
22383,Cs2 Hg1 Au1 Br6,0.0,225
22384,Cs2 Bi1 Au1 I6,0.0,225
22385,Rb2 Hg1 Sb1 Br6,0.0,225
22386,Rb2 In1 Bi1 F6,2.2926,225
22387,Rb3 Al1 Cl6,4.4338999999999995,225
22388,W2 Br4 O4,0.7668,26
22389,Ga1 Pr3,0.0,221
22390,Ba2 Tl1 Cu3 O7,0.0,47
22391,Ce2 Cu1 N2 O2,0.0,139
22392,Cu2 Ge1 S4,0.0,121
22393,Sr2 La14 Mg4 Fe12 O45,1.2552000000000003,1
22394,Li4 Mn2 Co2 O8,0.05699999999999994,2
22395,Li4 Mn2 Co2 O8,0.0,12
22396,Li4 Mn2 Co2 O8,0.46899999999999986,2
22397,Li5 Mn1 Co2 O8,0.2633000000000001,5
22398,Li4 Mn1 Co3 O8,0.4032,12
22399,Li8 Co6 O14,0.7163999999999997,2
22400,Li7 Mn2 Co3 O12,0.2876000000000003,2
22401,Li7 Mn2 Co3 O12,0.8531999999999997,2
22402,Li7 Mn2 Co3 O12,0.8109999999999999,2
22403,Li8 Mn2 Co4 O14,0.8548999999999998,1
22404,Li8 Mn2 Co4 O14,0.9989999999999997,1
22405,Li7 Mn2 Co3 O12,0.7613000000000003,2
22406,Li8 Mn2 Co4 O14,0.7246000000000001,1
22407,Li8 Mn2 Co4 O14,0.9537,1
22408,Li5 Mn3 O8,0.5366,2
22409,Li5 Mn3 O8,0.5251000000000001,2
22410,Li8 Mn2 Co4 O14,0.9965000000000002,1
22411,Li6 Mn3 Co1 O10,0.4735999999999998,8
22412,Li7 Mn2 Co3 O12,0.7088000000000001,10
22413,Li7 Mn2 Co3 O12,0.9555000000000002,1
22414,Li7 Mn2 Co3 O12,0.8782000000000001,1
22415,Li7 Mn2 Co3 O12,0.7637,1
22416,Li7 Mn2 Co3 O12,0.8943000000000003,1
22417,Li7 Mn2 Co3 O12,0.5934999999999997,1
22418,Li7 Mn2 Co3 O12,0.5400999999999998,1
22419,Li7 Mn2 Co3 O12,0.9704000000000002,1
22420,Li7 Mn2 Co3 O12,0.9264999999999999,1
22421,Li7 Mn4 Co1 O12,0.08250000000000002,2
22422,Li7 Mn4 Co1 O12,0.0,2
22423,Li7 Mn4 Co1 O12,0.3679999999999999,1
22424,Li7 Mn4 Co1 O12,0.0,6
22425,Li7 Mn4 Co1 O12,0.5260000000000002,8
22426,Li7 Mn5 O12,0.0,10
22427,Li7 Mn5 O12,0.0,10
22428,Li9 Co7 O16,0.0,2
22429,Li9 Mn2 Co5 O16,0.6214000000000004,2
22430,Na8 Co12 O16,0.7568999999999999,62
22431,Lu4 Ti2 O10,2.9509999999999996,15
22432,Mn13 Cr3 O32,0.8410000000000001,12
22433,Mn3 Ni1 O8,0.5468,166
22434,Li2 Sb2 P2 O4 F12,2.1351,1
22435,Li2 Mn2 F6,4.321899999999999,63
22436,Li1 Mn2 Co1 O6,0.3344999999999998,2
22437,Li4 Fe4 P4 C4 O28,0.0,1
22438,Li1 Cr1 P2 S7,1.2417000000000002,5
22439,Li12 Mn2 V6 P12 O48,0.32540000000000013,15
22440,Li6 V3 Cu1 P6 O24,0.18089999999999984,1
22441,Li12 Mn2 V6 P12 O48,0.4466000000000001,1
22442,Li24 Mn4 V12 P24 O96,0.47750000000000004,1
22443,Li12 Mn2 V6 P12 O48,0.17959999999999976,1
22444,Li20 Cr4 C16 O48,1.899,14
22445,Li10 Fe8 P16 O56,1.1702999999999997,1
22446,Li4 V5 Ni3 O16,1.0907999999999998,1
22447,Li8 V6 O2 F22,0.0,1
22448,Li4 V3 Fe5 O16,1.0019,1
22449,Li4 V3 Cu3 Te2 O16,0.024799999999999933,1
22450,Li4 Mn5 Sb1 O12,0.0,12
22451,Li4 Mn3 Fe3 O12,0.0,2
22452,Li12 Mn4 V4 P12 O48,0.18120000000000003,7
22453,Li12 Mn4 V4 P12 O48,0.5065,1
22454,Li12 Mn4 V4 P12 O48,0.24130000000000007,1
22455,Li12 Mn4 V4 P12 O48,0.43730000000000024,1
22456,Li12 Mn4 V4 P12 O48,0.49439999999999973,1
22457,Li9 Mn21 O36,0.0,1
22458,Li9 Ti6 V15 O36,0.0,1
22459,Li3 Co2 Sn1 O6,0.0499000000000005,12
22460,Li2 Mn1 V4 Co1 O12,1.3928,5
22461,Li8 Fe4 F16,3.0776,135
22462,Fe18 O18 F18,0.18910000000000027,6
22463,Fe10 O4 F16,0.7604000000000002,6
22464,Dy4 In4 O12,2.6259000000000006,62
22465,Fe10 O4 F16,1.1038,1
22466,Cs16 Mg8 O16,2.0228,14
22467,Cd2 Co4 O8,0.5152000000000001,141
22468,Sr1 H16 O10,3.3048,5
22469,Ti2 Fe2 O6,2.4638,2
22470,O8 Al4 Ag4,0.8241,33
22471,Pb20 S2 Cl8 O24,0.21150000000000002,2
22472,Li2 Tb10 Sn6,0.0,193
22473,Cr4 O8,0.16930000000000023,62
22474,Fe4 H8 Cl20 O12,2.011,62
22475,Ac3 Lu1,0.0,139
22476,Ac1 Y3,0.0,221
22477,Ac6 Eu2,0.0,194
22478,Ba1 Na2 Sn1,0.0,225
22479,Ba1 Tm1 O3,0.0,221
22480,Be3 Pd1,0.0,139
22481,Ca1 Ag3,0.0,225
22482,Ca1 Ag3,0.0,139
22483,Ca9 Si3 O15,3.8621,8
22484,Cd3 Ga1,0.0,139
22485,Cd3 Bi1,0.0,139
22486,Ce2 Mg1 In1,0.0,225
22487,Eu3 Mg1,0.0,221
22488,Gd3 Dy1,0.0,221
22489,Hf1 Cu3,0.0,139
22490,La5 Mg1,0.0,189
22491,La5 Mg1,0.0,38
22492,La3 Yb1,0.0,139
22493,La6 Hg2,0.0,194
22494,Cs6 As2,0.0,194
22495,Mg16 Al12 Cu1,0.0,160
22496,Mg16 Zr1 Al12,0.0,8
22497,Pr3 Hg1,0.0,139
22498,Pr6 Sc2,0.0,194
22499,Pr5 Mg1,0.0,38
22500,Sn6 Hg2,0.0,194
22501,Th3 Pa1,0.0,221
22502,Sr1 Eu1 Pt2,0.0,225
22503,Sr1 Ca1 Eu2,0.0,225
22504,Sr1 Eu3,0.0,139
22505,Th2 Cu1 Tc1,0.0,225
22506,Ti2 Cd6,0.0,194
22507,Yb2 Pr6,0.0,194
22508,Y1 Lu1 Ir2,0.0,225
22509,Ce2 Fe12 Co5,0.0,166
22510,Mn4 Pb4 O12,0.0,13
22511,Hf9 Ni11,0.0,87
22512,Sm10 Si6 C2,0.0,193
22513,Co12 Sn8,0.0,62
22514,Rb4 S4 O16,0.0,4
22515,Cs2 Yb4 Cu6 Se10,0.0,63
22516,Mg1 H12 N6 O6,4.549300000000001,69
22517,Cs2 Sm4 Cu6 Se10,1.1972,63
22518,Na1 Nb6 O16,0.0,38
22519,Rb12 Ni4 O8,1.2837,92
22520,Ti16 Fe8,0.0,227
22521,Dy6 Ga2 Co2 S14,0.0,173
22522,K2 Co2 P6 O18,2.5052,1
22523,Zr16 Ru8 N4,0.0,227
22524,Hf6 Ga16 Co7,0.0,225
22525,In1 Co22 B6,0.0,225
22526,Cu6 Te2 Pb2 O16,0.0,43
22527,As4 H16 C4 N4 F32,5.0701,2
22528,Ag4 H24 C4 S4 N12,2.894,15
22529,B20 H66 C20 I2,2.9553000000000003,2
22530,Mn6 P12 H24 O24,4.459899999999999,148
22531,Li4 B4 H16 C8 O24 F8,3.3824,14
22532,Er8 In10 S26,0.0,55
22533,U4 Si20 H180 C60 N12 Cl4,0.31189999999999996,14
22534,Zn8 As4 O20,0.0,58
22535,Mn4 H16 S4 N8 O16,3.5643000000000002,56
22536,H20 C4 N12,4.3102,19
22537,K2 Na4 P6 H14 N6 O16,4.7445,2
22538,Fe4 W24 Cl56,0.7376,201
22539,Rb4 U4 Se8 O32,0.03,14
22540,Cu4 H24 C8 Se4 Cl4,2.5369,14
22541,K4 Tb4 P8 H16 O36,4.3767,14
22542,Nd2 H32 N14 O38,3.4739,9
22543,Sr4 H16 Ir4 O8 F24,0.0,14
22544,Mn2 V10 H40 N2 O44,1.9683000000000002,2
22545,Fe24 Pb2 O38,1.1357000000000004,63
22546,P6 Pb10 O26,0.012299999999999756,11
22547,Li4 B24 H84 N20,4.1739999999999995,14
22548,Ho12 Mn12 Sn24,0.0,55
22549,Nb8 Ag4 O22,2.1083,167
22550,Ni2 P4 H28 O24,5.1265,14
22551,Cs2 Zn6 P6 O24,0.005099999999999993,2
22552,Ca4 Ti8 Fe4 O24,0.0,137
22553,P8 H72 W4 C24 Cl8 O16,3.8971,14
22554,Mo4 H36 S8 Cl16 O16,1.5888,14
22555,Ag4 Rh30 S30,0.0,221
22556,Ni1 H20 Pd1 C4 N4 O12,3.0486,23
22557,P12 H8 C4 N8 Cl44,2.3078,14
22558,K16 Se16 O64,0.010099999999999998,61
22559,Cu4 H24 C8 Se4 I4,2.4791,14
22560,Mg4 B8 H44 C4 S2,5.0235,9
22561,Ba8 Ga4 Bi4 Te20,1.318,62
22562,Lu6 Si26 Ir8,0.0,223
22563,Fe6 H42 C18 N6 O36,3.7335000000000003,4
22564,Er4 Co24 Ni10,0.0,194
22565,Rb2 U2 B10 O22 F2,0.4251,9
22566,Th20 Sn16,0.0,62
22567,Hf8 H112 C32 N8 O8 F40,6.6776,61
22568,Y4 Al6 Co28,0.0,194
22569,Ho4 Al6 Co28,0.0,194
22570,Nd18 C18 O72,0.11070000000000002,174
22571,Rb3 Sm1 F6,4.824,139
22572,Ce1 Co5 H4,0.0,65
22573,Fe1 Ag3 F6,0.0,225
22574,K3 Er1 F6,5.7668,225
22575,K3 Ho1 Cl6,4.5825,225
22576,Eu2 Y1 Ta1 O6,0.5425000000000004,225
22577,Y2 Ge6 Pt1,0.0,38
22578,Mg1 Cu1 Pb1,0.0,216
22579,Cs1 Mn1 Te2,0.0,119
22580,Ce2 Ge6 Au1,0.0,38
22581,Zr12 Co2 Sn4 H20,0.0,190
22582,Th10 Tl6,0.0,193
22583,Nd6 Nb2 Cl6 O12,0.0,176
22584,Na6 Zn4 Mo6 O24,1.4564,15
22585,Na12 Mg8 V12 O48,0.0,230
22586,Li2 H6 Pt1 O6,2.5176999999999996,162
22587,Li3 Ce1 Ga8,0.0,191
22588,Lu2 Cu2 Mo4 O16,0.7033999999999998,15
22589,K1 Th1 Ti2 O6,0.0,123
22590,K1 Al4 Fe3 H2 O12,1.3213000000000001,12
22591,Cs2 Yb2 Mo4 O16,0.0,49
22592,Cr2 Sn8 Au2,0.0,124
22593,Bi8 Se4,0.0,164
22594,Ca4 B16 O30,0.18230000000000002,2
22595,Bi12 Pb4 O21,0.12019999999999964,2
22596,Zr1 Ti1 C2,0.0,166
22597,Zr2 Ti2 O8,2.6085,18
22598,Yb1 Si1 Au1,0.0,187
22599,Zn2 Cu2 Se4 O12,0.47350000000000003,14
22600,Y1 Sc3 N4,0.0,139
22601,Y2 Al3 Fe1,0.0,166
22602,Y10 Si6 B1,0.0,162
22603,V1 Re1 Mo1,0.0,42
22604,V5 Cr5 Ge6,0.0,8
22605,Ti1 Mo1 P2,0.0,164
22606,Ti7 B8 Ir2 Rh4,0.0,6
22607,Ti3 Mo1 As4,0.0,164
22608,Th1 Zr3,0.0,187
22609,Te3 Au1,0.0,123
22610,Th2 Fe5 Ni5,0.0,47
22611,U24 Cr1 Fe3,0.0,21
22612,Sr1 Ta1 N1 O2,0.7715999999999998,25
22613,Ta2 H1,0.0,12
22614,Ta2 Co8 Mo2,0.0,164
22615,Sr2 Zn1 Sb2,0.0,187
22616,Sr2 Ce2 Sc2 O8,0.05250000000000021,36
22617,Sr3 Zr2 Nb2 O12,2.0433000000000003,166
22618,Sr2 La2 Mn4 O11,0.0,139
22619,Sn1 Te1 Pb1 Se1,0.4491000000000005,123
22620,Sm1 Mn2 Ni3,0.0,65
22621,Sm2 Fe4 Ni4 B2,0.0,35
22622,Sm2 Al4 Fe13,0.0,160
22623,Ru1 Rh4,0.0,166
22624,Pr2 Mn1 Sn4,0.0,38
22625,Pr1 Dy1 C4,0.0,123
22626,Nd1 Sm1 Fe17 N3,0.0,160
22627,Nb2 Mo2 S6,0.0,11
22628,Nb6 Sn1 Se8,0.0,147
22629,Nb6 Sn1 Te8,0.0,147
22630,Nb6 Zn1 Te8,0.0,147
22631,Na2 Yb2 Ti2 Nb2 O12 F2,0.0,74
22632,Na1 Nd1 Nb4 O12,1.3214,139
22633,Na8 P8 H20 N8 O22,4.5054,2
22634,Na16 Mn2 P2 O20,0.0,1
22635,Mn3 Fe3 Si2,0.0,160
22636,Mn3 Fe9 C4,0.0,1
22637,Mn10 Cu1 Ge5,0.0,97
22638,Li1 Sb1 Se2,0.0,123
22639,Li1 Tb1 W2 O8,4.0767999999999995,82
22640,Li1 Nd1 W2 O8,4.2302,82
22641,Li1 Gd1 S2,0.30310000000000015,123
22642,Lu4 Cr1 S7,0.0,8
22643,Lu1 Fe10 Si2,0.0,69
22644,Li6 Ti8 O16,0.0,4
22645,Li4 Mn2 Br8,1.5633999999999997,74
22646,La2 Fe4 Pb2 O12,0.0,31
22647,La3 U1 Al8,0.0,160
22648,La4 Fe1 Ni2 O10,0.0,107
22649,La1 Ce1 Co5 Ni5,0.0,47
22650,La2 Ga1 Co1 O6,0.0,148
22651,La2 Fe1 Sn4,0.0,38
22652,K1 Ce1 Mo2 O8,0.05259999999999998,82
22653,In5 S8,0.0,216
22654,K6 Ta11 O30,0.03610000000000024,38
22655,Ho4 Fe1 Sn8,0.0,25
22656,In1 Cu4,0.0,139
22657,In4 Fe2 Sb2 O14,0.19160000000000021,74
22658,K8 U10 B4 O42,0.15910000000000002,7
22659,Fe2 Cu10 Sb4 S13,0.0,121
22660,Fe1 Rh1,0.0,166
22661,Fe1 Cu4,0.0,166
22662,Gd1 Tm1 Fe2 Ni8,0.0,25
22663,Fe4 Si2 P2,0.0,26
22664,Fe1 Co2 Se4,0.0,8
22665,Fe1 B4 Mo2,0.0,44
22666,Fe12 B2 Mo12 C2,0.02910000000000057,74
22667,Eu2 Cu2 Sn2,0.0,12
22668,Er2 Si2 Pd2,0.0,12
22669,Dy1 Ho1 C4,0.0,123
22670,Dy1 Er1 C4,0.0,123