Index,Composition,bandgap,spgN
9889,Li8 Si8 Bi4 O26,2.3108999999999997,2
9890,Li4 Ti4 P16 O48,0.0,14
9891,Li4 Ti3 O8,1.7452999999999999,166
9892,Li2 Sn2 P4 O14,0.0,2
9893,Ge1 As1,0.0,107
9894,Li6 Bi6 P8 O32,3.4515,15
9895,Yb2 Nd2 O4,0.0,141
9896,Ag2 H16 C8 N16 F2,3.8125,2
9897,Li6 Bi6 P8 O32,3.0989,14
9898,Bi12 O12 F12,3.1626999999999996,14
9899,Li6 Sb4 P6 O24,2.4939,12
9900,Li4 Ti1 Cu3 P4 O16,0.0,1
9901,Li8 Cu8 F28,0.038999999999999924,33
9902,Bi6 O8 F2,2.1904999999999997,12
9903,Li6 Cu6 F24,0.0039000000000002366,2
9904,Hf8 N8 O4,2.1159,14
9905,Li2 Mn2 Si2 O8,0.9032,74
9906,Li2 Si5 Ni5 O16,2.9337999999999997,1
9907,Li4 Cr4 P4 O16,2.4433,4
9908,Li4 Ti2 Nb3 Cr3 O16,0.0,8
9909,Ti3 Fe3 P6 O24,0.27849999999999975,146
9910,Li8 V4 Si12 O36,2.1058999999999997,19
9911,Li4 Ni16 P12 O48,3.2862,56
9912,Li24 Fe8 P16 O64,1.7471,14
9913,Be4 Co8 O16,0.0,62
9914,Li5 V3 Co2 O10,0.9904000000000002,2
9915,Li8 Cr4 Si4 O16,1.1657000000000002,14
9916,Li4 Co4 P4 O16,2.8316,33
9917,Li2 Co2 P2 O8,2.6111999999999997,5
9918,Li4 Ni4 P4 O16,3.4977,15
9919,Li4 Ni4 P4 O16,3.5683000000000002,14
9920,Li4 Cu7 P6 O24,0.0,8
9921,Fe3 Co2 Ni1 P6 O24,0.0,146
9922,Li8 Ni8 P8 O32,2.8542,14
9923,Li8 Ni8 P8 O32,3.0582,33
9924,Co2 Ni3 Sb1 P6 O24,0.0,146
9925,Li4 Ni4 P4 O16,2.7521000000000004,62
9926,Li8 Ag4 F16,0.5475999999999999,15
9927,Li2 Sb6 P12 O40,2.8455,20
9928,Li4 Cu16 P12 O48,0.0,58
9929,Zn4 H48 N16 Cl16 O12,3.2221,62
9930,Li8 Cr8 Si8 O28,1.0305,14
9931,Li6 Cr2 Si2 O10,2.9625999999999997,2
9932,Li4 V2 Fe3 Ni3 O16,0.0,8
9933,Li4 Ti4 V10 O24,0.8546999999999998,4
9934,Li8 Fe8 Si8 O32,2.1283,33
9935,Li2 Mn10 P6 O26,2.9249,173
9936,Li2 Fe2 P4 O14,1.9497000000000002,2
9937,Li4 Co4 Si4 O16,0.7364999999999999,62
9938,Co8 C8 O28,0.7939,14
9939,Li6 Co6 Si6 O24,1.487,173
9940,Li4 Mn4 F12,3.5949999999999998,9
9941,Fe8 O6 F10,0.6957,2
9942,Fe8 O6 F10,0.7379,1
9943,Fe8 O4 F12,1.552,14
9944,Li4 Mn2 F12,2.6308,15
9945,Co6 O9 F3,0.0,38
9946,Fe18 O18 F18,0.2892000000000001,6
9947,Li8 V4 O8 F4,1.7722000000000002,1
9948,Li8 V4 O8 F4,1.7652,1
9949,Li6 Fe4 B4 O16,0.0,7
9950,Li4 Ni6 B6 O18,0.0,1
9951,Co6 O4 F8,0.16199999999999992,31
9952,Li1 Co2 B2 O6,0.8924000000000001,1
9953,Li12 V8 O16 F8,0.9199000000000002,3
9954,Li4 Co4 Si4 O16,0.8915000000000002,14
9955,Li2 Ti2 V2 O8,0.31169999999999964,74
9956,Li1 Fe2 C3 O9,1.6004,6
9957,Li1 Fe2 C4 O12,0.0,1
9958,Li1 P5 W3 O19,0.9576000000000002,8
9959,Li4 Co4 Si4 O16,0.7974000000000006,95
9960,Li3 Co6 C6 O21,1.0032999999999999,5
9961,Li2 Fe2 P8 O24,2.5151,4
9962,Li2 Ti3 V3 O12,0.9737999999999998,2
9963,Li4 Fe4 P8 O28,2.0977,14
9964,Li8 Mn8 O4 F16,1.6239,1
9965,Li40 Mn8 H8 O32,0.929,62
9966,Li8 Mn8 C8 O28,2.1548,14
9967,Li8 Mn8 O8 F16,1.0971,29
9968,Li7 Fe4 Ni1 O12,0.0,1
9969,Co6 O4 F8,0.02069999999999994,14
9970,Li6 Co2 O2 F6,2.1575999999999995,1
9971,Co6 O5 F7,0.3609,1
9972,Li10 V3 Cr5 O16,0.46229999999999993,1
9973,Li3 V4 O11 F1,2.3187,1
9974,Li3 Mn1 V3 O8,0.8407000000000004,166
9975,V2 O2 F6,2.218,5
9976,Li14 Ni2 O8 F4,0.6098,1
9977,V4 O4 F12,2.2201000000000004,30
9978,Li4 V2 O4 F4,0.0,74
9979,Li3 V1 O1 F5,2.9884000000000004,1
9980,Li2 V4 O2 F14,1.8488,7
9981,Li4 Mn8 O4 F12,1.0545000000000002,78
9982,Li12 V8 O16 F8,0.7641,1
9983,Li4 Mn4 F14,0.45840000000000003,15
9984,Co6 O8 F4,0.0,12
9985,Li8 Mn8 F24,3.1094999999999997,2
9986,Li11 Cr3 Fe3 O16,0.0,1
9987,Li4 Mn1 F8,1.0362,139
9988,Li4 V8 O12 F4,1.5082,44
9989,Li2 Ni4 O2 F6,2.6895,166
9990,Li1 Ni3 O1 F5,3.1789,1
9991,Li8 Co16 O4 F32,1.3839,1
9992,Na8 V6 O16,1.7942999999999998,11
9993,Li4 Co8 O4 F12,1.4698000000000002,1
9994,Ti1 Co3 O8,1.1234,166
9995,Li4 V4 O3 F9,0.5104000000000002,1
9996,Li4 Nb3 Cr2 Fe3 O16,0.16690000000000005,1
9997,Li2 Ni2 P4 O14,0.0,4
9998,Li4 Mn2 O2 F6,1.3204,4
9999,Li8 Ni8 P8 O32,3.0271,33
10000,Ba4 Ca4 I16,3.0008000000000004,12
10001,Li24 Co24 Si24 O96,1.4593000000000003,169
10002,Li4 Fe8 B8 O24,0.6017999999999999,1
10003,Li8 Fe8 P8 O36,1.6646,62
10004,Li8 Mn1 Cr3 O12,0.8085999999999998,1
10005,Li4 Mn4 O4 F8,1.1110000000000002,62
10006,Li3 V1 F8,1.3808999999999998,21
10007,Li7 Mn3 Si2 O12,1.2906000000000004,12
10008,Li4 Mn3 O5 F3,0.7021999999999999,8
10009,Li8 Mn2 O6 F2,1.0372,36
10010,Mn5 O3 F5,0.0,160
10011,Li8 Nb1 Fe3 O12,0.007599999999999829,1
10012,Mn5 O3 F5,0.0,8
10013,Fe2 P2 H2 O10,0.0,2
10014,Li12 Mn4 O8 F4,0.6114999999999999,58
10015,Li8 Mn2 O4 F4,1.3372000000000002,14
10016,Li12 V4 Si12 O36,2.2683000000000004,31
10017,Li8 V4 Si12 O32,2.9841999999999995,212
10018,Li8 V4 O4 F12,1.7415000000000003,30
10019,Li4 Mn6 B8 O24,0.5216,7
10020,Na2 Nd2 P2 C2 O14,0.18589999999999995,4
10021,Li8 V4 P8 O28,2.455,15
10022,Li3 Fe4 P6 O24,0.0,1
10023,Li4 Nb3 V3 Sn2 O16,0.12340000000000018,8
10024,Li1 Ti3 V1 O8,1.5415999999999999,166
10025,Li5 La3 Nb14 O42,0.0,12
10026,K2 V26 O40,0.5906999999999996,2
10027,Li4 Ho2 P2 C2 O14,4.8056,11
10028,Li4 Y2 P2 C2 O14,4.8196,11
10029,V6 F20,0.0,7
10030,Hg2 Sb4 O12,0.0,136
10031,Dy6 Y6 O18,3.028,185
10032,Li4 Bi4 B8 O20,1.8355000000000001,15
10033,Li8 Bi4 B4 O16,2.1135,62
10034,Bi6 B10 O21,1.1879999999999997,2
10035,Li8 B8 Sb4 S2 O32,2.561,70
10036,Ba2 Y4 Cl16,4.9177,15
10037,Li6 Sb2 N6 O18 F6,3.3377999999999997,36
10038,Ni1 P2 S6,0.35089999999999977,5
10039,Li4 Cu4 P4 O16,0.21829999999999994,4
10040,Zn4 Se4 O16,1.7134999999999998,62
10041,Ag8 H24 O16,1.0711,61
10042,Rb2 B6 Te4 O18,3.4368,13
10043,Li4 Cr8 P8 O32,0.0,14
10044,Li8 Mn10 Fe8 O36,0.0,6
10045,Li24 Ti4 B12 O36,0.025700000000000056,14
10046,V4 Ge4 O16,0.9819,60
10047,Li4 Mn4 B4 O12,2.5814,14
10048,Li4 V4 B4 O16,1.428,7
10049,Li4 Cr2 C2 S2 O14,2.2892,11
10050,Li2 Cr2 Ni2 O8,0.0,74
10051,Li12 Sn4 B8 O24,0.07860000000000023,14
10052,La16 Zn12 O36,1.7738000000000005,62
10053,Li2 V2 Si2 C2 O14,1.7103,11
10054,Li36 Al4 Ni8 O32,2.8286,62
10055,Li8 Al4 Fe4 O16,2.9327000000000005,14
10056,Li16 Al8 Fe8 O32,2.5826,29
10057,Li8 Hf8 O20,3.8274,14
10058,Li4 B8 Sb4 O20,2.8864000000000005,15
10059,Li4 Ti1 Ni5 P6 O24,2.3245999999999998,1
10060,Li6 Si2 Bi2 B2 O14,0.0,11
10061,Mn10 Cr6 O32,0.4473999999999999,1
10062,Li12 Fe4 B4 O20,0.46430000000000005,33
10063,Mn5 Sb3 O16,0.0,8
10064,Li1 V2 O4,0.4270999999999998,10
10065,Li4 Cr1 Ga3 O8,1.3628000000000002,1
10066,Ti1 Mn3 O8,1.4361000000000002,166
10067,Sr8 Y4 I28,2.6895,14
10068,Mn3 V1 O8,0.5214999999999999,2
10069,Ca6 Pb6 I28,0.0,11
10070,Sr10 La4 Cl32,4.1002,68
10071,Cr3 Co5 O16,0.2254999999999998,1
10072,Mn6 Nb2 O16,0.0,9
10073,Li5 Co7 O12,0.0,5
10074,Li2 Mn2 V2 O8,0.0,74
10075,Cu4 W4 O14,1.0151000000000003,2
10076,Mn4 Zn4 O12,0.1149,62
10077,Li6 Cr12 O39,1.5112,2
10078,Li24 Te8 O36,1.2989000000000002,2
10079,Er8 Bi8 O28,0.3730000000000002,4
10080,Cr6 W2 O16,0.4041999999999999,186
10081,Li3 Nb1 V2 O6,0.0,12
10082,Li4 Mn6 O12,0.0,64
10083,Li2 Mn3 Sn1 O8,0.0,160
10084,Li4 Mn3 W1 O8,0.9333,166
10085,Li24 Cr8 P16 O64,2.0410000000000004,29
10086,V3 Sb2 P6 O24,0.0,146
10087,Ti1 V2 Cr1 O10,1.3891,115
10088,Li14 Cr14 P16 O68,2.2607,14
10089,Mn1 Sb3 P4 O16,0.0,6
10090,Mn12 Sb4 O32,0.8637999999999999,96
10091,Li10 Mn3 Cr3 Ni2 O16,1.0054000000000003,1
10092,V7 W6 O30,0.3452000000000002,1
10093,Mn2 Fe1 O6,0.0,12
10094,Mn3 Cr2 Sb3 O16,0.3121999999999998,8
10095,Mn2 Nb2 P4 O16,0.045800000000000285,11
10096,Li4 Mn4 Cr2 O12,0.0,64
10097,Li4 Cr2 Ni3 Te3 O16,0.9577999999999998,1
10098,Li4 Mn3 Cu2 Sb3 O16,0.0,1
10099,Li2 Mn1 Cr3 O8,0.2761999999999998,160
10100,Li4 V4 Cu4 O16,0.0,95
10101,Li4 V2 Cr3 Sb3 O16,0.5373000000000001,1
10102,Li8 Ti4 Mn8 Cr6 O36,0.0,55
10103,Li4 Cr2 Cu3 Sb3 O16,0.0,8
10104,Co2 O2 F2,0.0,65
10105,Li4 Ni5 Te1 P6 O24,2.9442000000000004,1
10106,Zr16 N16 O8,1.6698000000000004,1
10107,Li8 Sb4 C8 S2 O32,2.5505999999999998,1
10108,V3 Cr3 W2 O16,1.0399000000000003,1
10109,Li5 Sn5 P6 O24,0.25649999999999995,1
10110,Ti1 Ni3 Sb2 P6 O24,0.5878000000000001,146
10111,Li4 Nb3 V3 Sb2 O16,0.25849999999999973,8
10112,Mn3 Cr2 Sb1 P6 O24,0.0,146
10113,V16 P16 O56,2.9810999999999996,76
10114,Hf4 N4 O2,1.3758,2
10115,Al2 Co2 O6,0.7975000000000003,1
10116,Mn3 Sb1 O8,0.0,12
10117,Li1 V6 O7 F5,0.9408999999999996,1
10118,Li4 Ni1 Sn3 P4 O16,2.1561999999999997,6
10119,Ti5 Mn3 O16,1.4194999999999998,8
10120,Li4 Fe4 F20,1.2092000000000005,62
10121,Li4 V2 Ni3 Sn3 O16,1.4507999999999996,8
10122,Li2 Fe2 F8,3.1962,141
10123,Co8 O12 F4,0.0,12
10124,Mn15 O32,0.0,12
10125,Li4 Fe2 O4 F2,2.3225,1
10126,Li12 Fe4 O10 F4,1.9382000000000001,2
10127,Li4 Fe4 F16,3.9064,12
10128,Ba24 Y4 Cl60,4.6917,15
10129,Li8 Fe8 F32,3.5555,14
10130,Li10 Fe2 O2 F10,4.2827,9
10131,Fe6 O5 F7,1.2268000000000001,1
10132,Li4 V5 Cu3 O16,0.0,1
10133,Li12 Fe4 O4 F12,3.6437,13
10134,Fe3 Co7 O20,0.0,10
10135,Sr8 Li32 Ni8 O32,2.6467,14
10136,Li6 V6 F24,1.2433999999999998,2
10137,Zn9 Fe21 O40,0.0,2
10138,Co10 O15 F5,0.0,38
10139,Fe6 O5 F7,0.9536999999999998,5
10140,Li24 Bi8 O24,2.8422,80
10141,Ti16 O28,0.0,2
10142,Li8 Mn6 F20,2.996,15
10143,Fe8 O4 F12,1.6320000000000001,62
10144,Li10 Mn3 Cr2 Ni3 O16,0.37219999999999986,8
10145,Li2 Fe2 P2 H4 O10,3.2717,31
10146,Li8 Fe2 O2 F10,3.0088,9
10147,Li16 Fe8 B8 O32,2.2207,29
10148,Li6 Fe2 B4 O12,2.5133,2
10149,Li4 Cr4 P16 O48,2.6060999999999996,14
10150,Li9 Cr9 P12 O48,1.4399000000000002,1
10151,Li12 Al2 Fe2 O12,2.6554,1
10152,Li8 Ni4 C8 S2 O32,0.0,15
10153,Fe10 O14 F6,0.0,1
10154,Zn1 Co1 O2,1.0271000000000003,166
10155,Fe6 O8 F4,0.0,4
10156,Li4 Co4 O3 F9,0.3823,1
10157,Li8 Fe8 O8 F16,1.7902,7
10158,Li12 La4 O12,3.8721999999999994,1
10159,Cd6 B12 O24,2.7302,146
10160,Li2 Mn6 B6 O18,0.5244,2
10161,Fe10 O14 F6,0.0,4
10162,Li2 Mn6 B6 O18,0.28949999999999987,2
10163,Li4 Mn2 P4 O14,3.7052000000000005,15
10164,Cr2 Si8 O20,1.8279999999999998,2
10165,Ti1 V1 O4,0.0,119
10166,Li4 V2 Fe3 Cu3 O16,0.0,1
10167,Li6 Fe1 O3 F3,2.7067,160
10168,Li2 Mn2 P2 H4 O10,3.058,31
10169,Li8 Cr4 Ni10 O24,0.0,4
10170,Li2 Co4 O7 F1,0.0,8
10171,Li5 V2 Ni3 O10,0.3066,2
10172,Li6 Cr12 O39,1.4861,2
10173,Fe10 O14 F6,0.0,7
10174,Li2 Mn6 B6 O18,0.18090000000000006,1
10175,Li2 Mn6 B6 O18,0.4590000000000001,1
10176,Li6 Cu2 P4 O14,1.2101999999999995,2
10177,Co8 O12 F4,0.0,1
10178,Ca18 La10 Br66,2.9651,2
10179,Fe6 O8 F4,0.0,1
10180,Li4 Co2 O2 F6,1.1839,9
10181,Li3 V6 O9 F9,0.8960000000000001,1
10182,O6 Na1 S2 Tl3,2.8420999999999994,164
10183,S4 Ag2 Yb2,0.0,141
10184,O1 Pu1,0.0,225
10185,Li2 Fe1 Cu2 O6,0.0,12
10186,Li6 Co4 O2 F10,1.5355999999999999,1
10187,Li14 Co2 O8 F4,1.1591,1
10188,Li2 Mn6 B6 O18,0.17520000000000002,2
10189,Li1 Fe3 O3 F4,2.4469,160
10190,Li2 Fe3 O3 F5,1.9627000000000001,8
10191,Li8 Ni8 S12,0.0,15
10192,Li2 Mn6 B6 O18,0.0827,2
10193,Na36 Co12 O36,0.32489999999999997,64
10194,Li10 Cr8 O16,1.1098999999999997,9
10195,Li2 Fe2 P6 H16 O26,3.3193,2
10196,Mn3 Sn1 O8,1.3142999999999998,166
10197,Li3 Fe6 C6 O21,1.0272,5
10198,Fe10 O14 F6,0.0,5
10199,Cr19 O48,0.0429,1
10200,Fe8 O12 F4,0.0,12
10201,Li8 Mn4 O8 F4,1.0629,15
10202,Li14 Fe2 O8 F4,2.6244,1
10203,Li18 V18 F54,1.355,2
10204,Li8 Cu4 F20,0.5961000000000003,14
10205,Li14 Cu2 Si4 O16,1.1446,12
10206,Li8 V4 F24,1.7703,14
10207,Li8 Mn8 P8 O32,2.7783,33
10208,Li6 Mn6 P6 O24,3.1633000000000004,159
10209,Li6 V2 Si2 O10,1.6511000000000005,2
10210,Li2 Mn4 O2 F6,1.8355000000000001,166
10211,Li8 Ti8 Cr10 O36,0.0,55
10212,Li12 Co12 P12 O48,2.0837000000000003,14
10213,Li9 V5 Si10 O32,1.7645,5
10214,Yb1 Ti1 O3,1.8956999999999997,221
10215,Pr1 Sm1 O2,0.0,166
10216,Li4 V7 O9 F7,0.8588,8
10217,Na2 Mn2 O4,0.0,194
10218,Tb3 Yb1,0.0,139
10219,Sc2 Sn6,0.0,194
10220,Lu6 Ga2,0.0,194
10221,Ho3 Pb1,0.0,139
10222,Rb1 Sb1 O3,0.0,221
10223,Tm6 Ga2,0.0,194
10224,K1 Bi1 O3,0.0,221
10225,Ga3 Bi1,0.0,221
10226,Ag3 Ge1,0.0,221
10227,Al1,0.0,229
10228,Ti3 In1,0.0,225
10229,Ca2 Sn6 P6 O26,0.3651,11
10230,Co4 S8,0.0,74
10231,Ca2 Fe4 O10,0.0,59
10232,Co12 O24,0.14439999999999997,1
10233,Ca1 Ti4 O8,0.0,8
10234,Ca1 Cu2 Ge4 O12,0.3326,5
10235,Bi12 P4 O30,0.0,1
10236,V2 Zn4 Sb2 O12,1.2046000000000001,11
10237,Zn2 Mo3 O8,1.0863,12
10238,Y8 V12 O36,0.9430000000000001,1
10239,Sn4 F12,1.9533999999999998,2
10240,Mg2 Sn3 O8,2.4485,12
10241,Mg2 V2 F8,2.5082999999999998,2
10242,Ca6 W4 O14,2.3977999999999997,36
10243,Mg4 Ta2 Cr2 O12,2.5844,11
10244,Mg4 Ta2 Mn2 O12,0.5998999999999994,11
10245,Mg12 Ni8 Ge12 O48,0.34460000000000024,230
10246,V4 Zn6 Si8 O28,1.8698000000000001,15
10247,Mg6 Co4 Si8 O28,1.3757000000000001,15
10248,Mg2 Cu2 Si4 O12,0.08089999999999975,15
10249,Zn2 Cu2 Si4 O12,0.15490000000000004,15
10250,Zn12 Fe8 Ge12 O48,2.6753,230
10251,Mg4 Bi4 As4 O20,2.8587,19
10252,La2 Ti2 Zn2 Fe2 O12,2.2913,7
10253,Na1 Li1 I1 Cl1,4.1874,123
10254,Na8 Mn16 O32,0.0,13
10255,Hg1 Pt3,0.0,221
10256,H2 W2,0.0,194
10257,Mn1 Fe1,0.0,123
10258,Y1 B1 Pd3,0.0,221
10259,Ce2 Sb2 Au2,0.0,194
10260,Nd2 Co2 P2,0.0,129
10261,Mg6 Sn1 Bi1,0.0,38
10262,Mg6 Zn1 Bi1,0.0,38
10263,Mg6 Al1 Bi1,0.0,38
10264,Sm2 Al1 N1 O3,1.8087999999999997,107
10265,Mg14 Nb1 Sn1,0.0,187
10266,Hf1 Mg14 Ti1,0.0,38
10267,Mg14 Nb1 Sn1,0.0,38
10268,Mg14 Cr1 Sn1,0.0,38
10269,Mg14 Ti1 Sb1,0.0,38
10270,Hf1 Mg14 Ga1,0.0,38
10271,Hf1 Mg14 Sb1,0.0,187
10272,Mg14 Nb1 Cd1,0.0,187
10273,Mg14 Ga1 Si1,0.0,38
10274,Li1 Mg14 Cr1,0.0,187
10275,Te2 Mo1 W3 Se2 S4,0.0,156
10276,Te2 Mo1 W3 Se2 S4,0.0,156
10277,Te2 Mo2 W2 Se2 S4,0.0,156
10278,Te2 Mo2 W2 Se2 S4,0.0,156
10279,Te4 Mo3 W1 Se2 S2,0.16000000000000014,156
10280,Te2 Mo1 W3 Se2 S4,0.0,156
10281,Te2 Mo1 W3 Se2 S4,0.0,156
10282,Te2 Mo1 W3 Se2 S4,0.0,156
10283,Te2 Mo2 W2 Se2 S4,0.5877000000000003,156
10284,Te2 Mo2 W2 Se2 S4,0.0,156
10285,Te2 Mo3 W1 Se2 S4,0.0,156
10286,Te2 Mo2 W2 Se2 S4,0.0,156
10287,Mg14 Zr1 Ga1,0.0,187
10288,Na1 Mg14 Zr1,0.0,38
10289,Li1 Mg14 Fe1,0.0,38
10290,Y1 Mg14 Ga1,0.0,187
10291,La1 Mg14 Zn1,0.0,187
10292,Ce1 Mg14 Zn1,0.0,187
10293,Mg14 Mn1 Sb1,0.0,38
10294,Sr1 Ca1 Mg14,0.0,187
10295,Mg14 Al1 Si1,0.0,38
10296,Mg14 Ni1 Sb1,0.0,187
10297,Te2 Mo1 W3 Se2 S4,0.09660000000000002,156
10298,Te2 Mo1 W3 Se2 S4,0.09150000000000036,156
10299,Te2 Mo1 W3 Se2 S4,0.0,156
10300,Te2 Mo1 W3 Se2 S4,0.0,156
10301,Te2 Mo2 W2 Se2 S4,0.18599999999999994,156
10302,Te2 Mo1 W3 Se2 S4,0.0,156
10303,Te2 Mo1 W3 Se2 S4,0.0,156
10304,Te2 Mo2 W2 Se2 S4,0.1634000000000002,156
10305,Ca8 Re4 N12,0.0,64
10306,Te4 Mo3 W1 Se2 S2,0.0,156
10307,Te2 Mo2 W2 Se2 S4,0.0,156
10308,Te2 Mo2 W2 Se2 S4,0.0,156
10309,Na1 Mg6 Ga1 O8,2.4414000000000007,123
10310,Te4 Mo3 W1 Se2 S2,0.0,156
10311,Mg6 Fe1 Co1 O8,1.4249,123
10312,Ca1 Mg6 Cu1 O8,0.0,123
10313,Sr1 Mg14 Zn1 O16,2.6199000000000003,123
10314,Sr1 Mg14 Zn1 O16,2.7901,47
10315,Mg14 Al1 Zn1 O16,0.0,47
10316,Mg14 Al1 Ni1 O16,1.4056000000000006,123
10317,Sr1 Mg30 Sn1 O32,1.8968000000000007,123
10318,Hf1 Mg30 V1 O32,0.0,123
10319,Hf1 Mg30 V1 O32,0.16600000000000037,123
10320,Mg30 Co1 Si1 O32,0.1164000000000005,123
10321,Ba1 Mg30 Cu1 O32,0.3716999999999997,123
10322,Mg30 Cu1 Si1 O32,0.3567999999999998,123
10323,Hf1 Mg30 Fe1 O32,0.008899999999998798,123
10324,Mg30 Cd1 Bi1 O32,0.0,123
10325,Mg30 Nb1 Cd1 O32,0.021100000000000563,123
10326,Hf1 Mg30 Cr1 O32,0.00849999999999973,123
10327,Ba1 Mg30 Cd1 O32,3.6805999999999996,123
10328,Sr1 Mg30 Nb1 O32,0.5270999999999999,123
10329,Ca2 Mg10,0.0,38
10330,Na1 Mg30 B1 O32,4.452500000000001,123
10331,Rb1 Na1 Mg30 O31,3.0168,25
10332,K1 Mg30 Sb1 O32,2.798899999999999,123
10333,K1 Na1 Mg30 O31,2.0721000000000007,25
10334,Hf1 Mg30 Ti1 O32,0.06510000000000105,123
10335,Na1 Mo1 O3,0.0,221
10336,Ca2 Ti8 O18,2.6104000000000003,85
10337,Ho2 V4 Zn2 O12,1.0043999999999995,7
10338,Ho2 Zn2 Fe4 O12,0.0,31
10339,Mg2 Cu6 P6 O26,0.0,11
10340,Ca6 Mo12 O24,0.9438000000000004,1
10341,Ca8 Cu8 Si16 O48,0.4828000000000001,61
10342,Te2 W4 O16,2.1773999999999996,13
10343,Al2 Sn2 W4 O16,0.16970000000000063,13
10344,Sn4 As8 O28,1.1983000000000001,14
10345,Ca4 Ti6 O16,2.4456999999999995,186
10346,Sr4 Al2 Fe2 Cu4 O14,0.39579999999999993,1
10347,Zn1 Co4 Cu3 O12,0.0,204
10348,Zn4 Cu4 Si16 O40,0.6206,130
10349,Ta4 Ni4 P8 O36,0.010300000000000002,2
10350,Mg4 V4 Si16 O40,1.8761999999999999,130
10351,Ca2 Ta2 Ti2 P6 O24,0.0,161
10352,La2 Mg2 Ti2 Fe2 O12,2.0176999999999996,7
10353,Mg2 Cr4 P4 O20,0.0,43
10354,Ca4 Mn4 Bi4 O20,1.1009,14
10355,Pr2 Mg2 V4 O12,0.8948999999999998,7
10356,Mg4 Cu8 P8 O36,0.0,14
10357,Zn2 Bi4 O12,0.08800000000000008,4
10358,Mg2 Mn4 O8,0.07089999999999996,2
10359,Y1 Cu3 Ag4 O12,0.0,204
10360,Ca2 Ti9 O13,0.0,12
10361,Ca4 Ta4 Cr2 O16,2.1716,1
10362,Sr2 Mo2 P4 O16,1.9867999999999997,2
10363,Mg2 Ti8 O12,0.0,63
10364,Al2 W6 F30,3.003,11
10365,Sr4 Y4 Cu4 O14,0.0,46
10366,La2 Mg2 Cr2 Mo2 O12,1.4102000000000006,7
10367,Ca4 Sn8 P8 O36,1.1226000000000003,31
10368,Sb1 Th1,0.0,221
10369,V2 N3,0.0,164
10370,La4 Cu4 O10,0.0,46
10371,Zn2 Sb4,0.0,118
10372,Sr1 Ca7 Mn6 Fe2 O24,0.0,38
10373,Sm2 Fe2 Sb4,0.0,129
10374,Cs2 Dy2 Br6,0.0,127
10375,Ba1 Nd1 Co2 O6,0.0,123
10376,Te2 Mo1 W3 Se2 S4,0.0016000000000002679,156
10377,Te2 Mo2 W2 Se2 S4,0.0,156
10378,Te2 Mo2 W2 Se2 S4,9.999999999976694e-05,156
10379,Dy2 Ni4 Sb4,0.0,129
10380,Mg4 Zn8,0.0,38
10381,Mg5 Sn1,0.0,187
10382,Sr6 Mg2,0.0,139
10383,Y4 Mg8,0.0,15
10384,Mg4 Zn2,0.0,187
10385,Mg6 Zn6,0.0,38
10386,Mg4 Ga2,0.0,194
10387,Mg4 Bi8,0.0,63
10388,Ir4 O8,0.0,205
10389,K2 F10,0.0,88
10390,Cr1 Ag1 O2,1.1139999999999999,160
10391,Ba2 Nb4 Fe4 O18,1.1067,36
10392,La4 Sc4 O10,0.0708000000000002,8
10393,Mg30 Cu1 Si1 O32,0.0,123
10394,K3 Na5 V3 Mo5 O24,0.0,1
10395,Sr3 Ca5 Fe1 Co7 O24,0.0,8
10396,La7 Sm1 Mn7 Cu1 O24,0.0,160
10397,K2 Na6 V4 Mo4 O24,0.0,35
10398,Ca4 Sn2 S8,0.39800000000000013,227
10399,Ca6 Sn6 S18,1.9074999999999998,2
10400,Ca4 Sn8 S20,0.8271999999999999,2
10401,Ca12 Sn8 S28,1.8489,14
10402,V1 Sb1 Rh1,0.0,216
10403,Li9 Mn2 Co5 O16,0.3496999999999999,6
10404,Li9 Mn2 Co5 O16,0.0,8
10405,Li9 Mn2 Co5 O16,0.0,8
10406,Li9 Mn2 Co5 O16,0.45809999999999995,10
10407,Sr16 La3 Co11 Cu8 O46,0.0,99
10408,Te7 As5 I1,0.0,1
10409,W4 N8,0.5661,12
10410,V4 O2 F12,1.4618,1
10411,V3 Cr2 Cu1 P6 O24,0.0,146
10412,V6 P8 O28,0.11569999999999991,2
10413,Sr2 La2 I10,2.1324,15
10414,Nd2 Si2 O8,0.0,141
10415,Ni2 P8 O24,0.0,1
10416,V3 Co2 P6 W1 O24,0.0,146
10417,Mg3 Ti1 H8,0.0,221
10418,Pr4 Re8,0.0,194
10419,Cu1 Mo6 Se8,0.0,148
10420,Sc8 S12,1.5183,33
10421,Rb2 In1 As1 Br6,0.15589999999999993,225
10422,K2 Rb1 Y1 Cl6,4.4186,225
10423,Rb2 Nd1 Cu1 I6,1.8116,225
10424,K3 Nd1 Cl6,4.4879999999999995,225
10425,K2 Nd1 Cu1 Br6,2.0705,225
10426,K3 Nd1 Br6,3.7704,225
10427,Tb1 K2 Rb1 Cl6,4.4079,225
10428,K2 Rb1 Gd1 Cl6,3.1289,225
10429,K2 Rb1 Dy1 Cl6,4.4164,225
10430,Na2 Al1 Ag1 F6,2.2248,225
10431,Cs2 Na1 Ta1 Cl6,0.0,225
10432,Cs2 Na1 Ta1 Br6,0.0,225
10433,Rb2 Ga1 Ag1 I6,0.0,225
10434,K2 Sc1 Hg1 Br6,0.0,225
10435,K2 In1 Sb1 Cl6,0.6806999999999999,225
10436,K2 In1 As1 I6,0.0,225
10437,K2 Sc1 Au1 Cl6,1.9205999999999999,225
10438,K2 Tl1 Ag1 I6,0.0,225
10439,K2 Hg1 Bi1 Br6,0.0,225
10440,Cs2 Cu1 Mo1 Br6,0.3459000000000001,225
10441,Rb2 Al1 Hg1 F6,0.0,225
10442,K2 In1 Au1 I6,0.0,225
10443,Cs2 Ta1 Tl1 F6,0.0,225
10444,Cs2 As1 Au1 Cl6,0.17710000000000004,225
10445,Cs2 Sc1 Hg1 Cl6,0.0,225
10446,Rb2 In1 As1 I6,0.0,225
10447,K1 Rb2 In1 I6,1.2656,225
10448,Mg2 Ag1 Pr1,0.0,225
10449,K2 Cu1 Cl2 F2,0.0,139
10450,Ta1 Cu6 O8,0.0,12
10451,Co4 P8 O28,0.0,1
10452,Cu9 Se5,0.0,5
10453,Sc2 H14 S4 N2 O21,4.3812,1
10454,Li6 Co4 O10,0.0,12
10455,Li6 Mn2 Co2 O10,0.3689999999999998,12
10456,Li6 Mn2 Co2 O10,0.47250000000000014,12
10457,Li4 Mn1 Co3 O8,0.0,12
10458,Li6 Mn2 Co2 O10,0.4497,8
10459,Li7 Co5 O12,0.2867000000000002,6
10460,Li6 Mn2 Co2 O10,0.3727999999999998,12
10461,Li6 Mn2 Co2 O10,0.0,1
10462,Li8 Co6 O14,0.5091999999999999,2
10463,Li7 Mn2 Co3 O12,0.0,12
10464,Li7 Mn2 Co3 O12,0.4533999999999998,12
10465,Li8 Mn2 Co4 O14,0.36030000000000006,12
10466,Li8 Mn2 Co4 O14,0.0,12
10467,Li8 Mn2 Co4 O14,0.0,12
10468,Li8 Mn2 Co4 O14,0.3223999999999996,1
10469,Li8 Mn2 Co4 O14,0.48360000000000003,1
10470,Li8 Mn2 Co4 O14,0.0,1
10471,Li6 Mn3 Co1 O10,0.18839999999999968,1
10472,Li8 Mn2 Co4 O14,0.0,8
10473,Li8 Mn2 Co4 O14,0.05310000000000015,8
10474,Li7 Mn2 Co3 O12,0.5273999999999996,10
10475,Li7 Mn2 Co3 O12,0.0,10
10476,Li7 Mn2 Co3 O12,0.0,1
10477,Li7 Mn2 Co3 O12,0.0,8
10478,Li7 Mn2 Co3 O12,0.0,6
10479,Li7 Mn2 Co3 O12,0.0,1
10480,Li7 Mn2 Co3 O12,0.0,8
10481,Li7 Mn4 Co1 O12,0.0,1
10482,Li7 Mn4 Co1 O12,0.0,1
10483,Li9 Co7 O16,0.0,10
10484,Li9 Co7 O16,0.4506999999999999,10
10485,Li9 Co7 O16,0.42289999999999983,2
10486,Li9 Co7 O16,0.0,2
10487,Li9 Co7 O16,0.5402,2