Index,Composition,bandgap,spgN
14145,Na8 Cr16 O52,1.7377,14
14146,Li6 Cu6 P4 O16,0.7711000000000006,1
14147,Ag2 B2 O6,0.0,167
14148,Na32 Gd8 O28,1.8545000000000003,14
14149,Li4 Cr4 P8 O32,1.1546,19
14150,Fe8 O6 F10,0.9574000000000003,4
14151,Rb8 B40 H40,4.0007,14
14152,Tb5 O9,0.0,82
14153,Mn4 Cr4 O16,1.191,62
14154,Li3 Cr2 Ni2 O8,0.0,12
14155,Fe10 O15 F5,0.0,38
14156,Fe6 O4 F8,1.3885999999999998,14
14157,Fe10 O9 F11,0.6256999999999997,1
14158,Li4 Mn3 Cr3 O12,0.0,22
14159,Mn3 Cr3 Co2 O16,0.0,8
14160,Fe8 O10 F6,0.0,12
14161,Ba1 Os1 O3,0.0,221
14162,Co6 O4 F8,0.37359999999999993,14
14163,Fe10 O15 F5,0.0,38
14164,Li3 V5 Cr2 O12,0.41300000000000026,5
14165,Fe4 O4,0.0,9
14166,Y4 Nb8 N4 O20,2.5160000000000005,4
14167,Mn3 V1 Te2 P6 O24,0.4851000000000001,146
14168,Dy2 V2 O7,0.47440000000000015,12
14169,Li8 Cu4 P12 O36,1.1791999999999998,19
14170,Fe10 O9 F11,0.3998999999999997,6
14171,Fe10 O9 F11,0.41890000000000027,6
14172,Li2 V2 P6 H2 O20,2.3312,2
14173,Li4 Ti4 Ni2 O12,2.8432999999999997,64
14174,Ta4 Cr2 N2 O10,1.3251000000000004,12
14175,Ta4 Cr2 N2 O10,1.3735,38
14176,Fe12 O12,1.1609999999999996,190
14177,Li4 Cu3 Sn1 P4 O16,0.0,6
14178,Fe10 O9 F11,0.0,6
14179,Li6 Fe8 F38,0.0,2
14180,Mn8 V12 O48,0.0,14
14181,Na12 V4 B8 As2 O32,0.0,203
14182,Sr4 Ca4 I16,3.3834999999999997,14
14183,Fe8 O10 F6,0.0,2
14184,Li12 Cr4 P8 O36,0.0,4
14185,Fe6 O8 F4,0.0039000000000000146,14
14186,Li9 Nb7 V12 O48,1.0234000000000003,1
14187,Li2 Co6 O4 F12,0.18589999999999995,14
14188,Li3 Cr1 Ni3 O8,0.0,2
14189,Fe6 O6 F6,1.3310000000000002,1
14190,V3 Cr2 Sn1 P6 O24,0.0,146
14191,Li4 V4 P8 H8 O32,2.0336,9
14192,Li2 V2 Cr2 O8,1.2521999999999998,15
14193,Fe10 O9 F11,1.2079,38
14194,Fe10 O9 F11,0.4756,1
14195,Th2 Nb8 O24,1.7238000000000002,59
14196,Li4 Ni6 P8 O28,3.4482,4
14197,Li8 Mn8 P8 O32,3.3449000000000004,14
14198,Li4 Sn2 P4 O14,2.2417000000000002,15
14199,Li16 Nb4 P16 O56,0.8900000000000006,130
14200,Ca6 Sn4 S14,0.6240000000000006,55
14201,Ca4 Sn4 S12,1.366,14
14202,Pu2 O4,0.0,136
14203,Li2 Ti2 Si8 O20,0.5326999999999993,30
14204,Li4 Ni4 P16 O48,0.0,14
14205,Ag16 Ge16 O48,0.0,55
14206,Tm2 Fe2 Ge4,0.0,63
14207,K3 Tl1,0.0,221
14208,Np1 As3,0.0,139
14209,Ho1 Zr1 Os2,0.0,225
14210,Na3 Mg1,0.0,139
14211,Pa3 Zn1,0.0,221
14212,Cu2 Ag6,0.0,194
14213,Ce2 Mg1 Al1,0.0,225
14214,Ce1 Dy3,0.0,139
14215,Sc2 O2 F2,4.3361,129
14216,Li6 Fe4 P14 O42,4.011699999999999,2
14217,Cs1 Tl1 F3,0.0,160
14218,Cs1 Tl1 F3,0.0,1
14219,Ca3 Ta2 Mn2 O12,0.4478,6
14220,Al10 Ni6 O24,0.0,12
14221,Mg4 Co8 O16,1.9704999999999995,62
14222,Ti4 Zn1 S8,0.0,166
14223,Sr6 Y1 Tl3 Cu6 O21,0.0,47
14224,Mg4 Cr2 Sb2 O12,2.4273999999999996,11
14225,Mg4 Ni2 N4,0.0,1
14226,Mg4 Fe8 Si16 O48,2.4041,29
14227,Zn6 Bi4 O14,0.0,36
14228,Mg4 Mn2 N4,0.0,12
14229,V4 Zn2 S8,0.0,8
14230,Ca6 Ga4 Fe4 O20,0.15650000000000008,7
14231,Ca4 Cr2 N4,0.0,12
14232,Mg4 Sb2 Mo2 O12,1.1844000000000001,11
14233,Ca2 V10 O14,0.43129999999999935,63
14234,Mg4 Ti4 F20,0.2946,14
14235,Ca4 Ni4 O10,0.0,55
14236,Al8 V12 Si12 O48,2.6171000000000006,230
14237,Mg6 Cu4 Si8 O28,0.2986,15
14238,Mg6 V4 Si8 O28,1.9870999999999999,15
14239,Zn8 Cu16 O32,0.0,8
14240,Mn4 Zn6 Si8 O28,1.6188000000000002,15
14241,Ca4 Bi2 W2 O12,1.9657,14
14242,Zn4 Ni2 W2 O12,2.9140999999999995,14
14243,Zn4 Co2 W2 O12,2.4596,14
14244,Sn8 O16,1.7606000000000002,62
14245,Ca4 Bi8 O16,1.8849999999999998,62
14246,Mg4 Mn2 Ir2 O12,0.0,14
14247,Bi16 O32,0.051000000000000156,1
14248,Ce1 Sm3,0.0,221
14249,Ce2 Y6,0.0,194
14250,Na12 Fe8 Ge12 O48,0.0,230
14251,Cr6 N8,0.0,11
14252,Mg6 Ga1 Bi1,0.0,38
14253,Mg4 Sn2,0.0,194
14254,Al6 P6 O24,5.4686,2
14255,Ca4 Mg4 Si8 O24,4.5994,14
14256,Zn8 Si4 O16,2.5427999999999997,62
14257,Mg6 Sn1 Bi1,0.0,38
14258,Li1 Y1 Mg6,0.0,38
14259,Te2 Mo1 W1 S2,0.0,156
14260,Te2 Mo1 W2 Se2 S2,0.0,156
14261,Sr1 Mg14 Cd1,0.0,38
14262,Ce1 Mg14 Cd1,0.0,187
14263,La1 Mg14 Ga1,0.0,38
14264,Ce1 Mg14 Ga1,0.0,38
14265,Ce1 Hf1 Mg14,0.0,38
14266,Mg14 Zr1 Ga1,0.0,38
14267,Hf1 Mg14 Zn1,0.0,187
14268,Mg14 Zr1 Sn1,0.0,187
14269,Hf1 Mg14 Zn1,0.0,38
14270,La1 Mg14 Zr1,0.0,38
14271,La1 Mg14 Zn1,0.0,38
14272,Y1 Mg14 Sn1,0.0,187
14273,La1 Y1 Mg14,0.0,187
14274,Y1 Mg14 Ti1,0.0,38
14275,Ce1 Mg14 Zn1,0.0,38
14276,Y1 Mg14 Cu1,0.0,187
14277,Ca1 Mg14 Zr1,0.0,38
14278,Ca1 La1 Mg14,0.0,187
14279,Y1 Mg14 Al1,0.0,187
14280,Y1 Mg14 Ni1,0.0,38
14281,Te4 Mo2 W2 Se2 S2,0.0047000000000001485,156
14282,Te4 Mo2 W2 S4,0.0,164
14283,Te4 Mo2 W2 S4,0.0,156
14284,Te4 Mo2 W2 S4,0.38260000000000005,156
14285,Te4 Mo2 W2 Se2 S2,0.1368999999999998,156
14286,Mg6 V1 Cr1 O8,0.0,123
14287,Mg6 Co1 Cu1 O8,0.0,123
14288,Li1 Mg6 Co1 O8,0.27059999999999995,123
14289,Mg6 V1 Co1 O8,0.47109999999999985,123
14290,Mg6 V1 Co1 O8,0.0,123
14291,Na1 Mg6 Mn1 O8,0.0,123
14292,Mg6 Zn1 Cr1 O8,0.0,123
14293,Ca1 Mg6 Zn1 O8,2.7901999999999996,123
14294,Mg14 Ti1 V1 O16,0.0,123
14295,Mg14 Ti1 V1 O16,0.0,47
14296,Li1 Mg14 Sb1 O16,1.4560000000000004,47
14297,Ca1 Mg14 Ti1 O16,0.0,123
14298,Mg30 Co1 B1 O32,1.7368000000000006,123
14299,Mg30 Zn1 Bi1 O32,0.0,123
14300,Mg30 Fe1 Bi1 O32,0.4980000000000002,123
14301,Mg30 Fe1 Bi1 O32,0.022700000000000387,123
14302,Y1 Mg30 Cd1 O32,0.30980000000000096,123
14303,Ba1 Mg30 Zn1 O32,3.5264000000000006,123
14304,Rb1 Mg30 Mn1 O32,1.5036000000000005,123
14305,Mg4 Bi4,0.0,12
14306,Ca6 Mg6,0.0,8
14307,Ce5 Mg1,0.0,187
14308,Ce6 Mg6,0.0,38
14309,K1 Na1 Mg30 O31,2.6303,25
14310,K1 Li1 Mg30 O31,2.4546,25
14311,La1 Cr1 Cu1 O6,0.607,1
14312,Zn4 Co8 P8 O36,0.0,2
14313,Cu6 Mo12 O42,0.0,13
14314,Zn2 Cu1 W1 O6,0.3500000000000001,1
14315,Mg4 Ni6 O16,0.47429999999999994,186
14316,Zn2 Bi4 O10,0.0,63
14317,Ge8 Bi4 O24,0.01319999999999999,14
14318,Ca3 Fe4 Mo6 O24,1.2851000000000004,2
14319,Zn4 Fe4 Ni4 P8 O36,0.20179999999999998,6
14320,Zn3 Fe4 Bi6 O24,0.0,2
14321,Mg4 Co4 Ni4 P8 O36,0.0,11
14322,Mg1 Cu3 Ni4 O12,0.0,204
14323,Zn2 Ni8 O12,0.0,63
14324,Mg2 Ti2 Ag2 P6 O24,0.0,161
14325,Mg2 Ti2 Sb2 P6 O24,1.213,161
14326,La2 Zn2 Fe2 W2 O12,2.2058,7
14327,La2 Zn2 Fe2 Mo2 O12,1.7031999999999998,7
14328,Mg6 Cu12 O24,0.0,156
14329,Ti12 Al4 O24,0.0,164
14330,Li2 V4 S8,0.0,141
14331,Zn2 Ni9 O13,0.0,12
14332,Ca2 Ti2 P2 O10,0.12220000000000031,1
14333,Mn10 Te6 O36,0.1575000000000002,5
14334,Ca8 Co10 Te6 O36,1.5187000000000004,5
14335,Ca4 Nb4 Cr2 O16,1.6063999999999998,1
14336,Ti1 Zn2 W1 O6,1.4272999999999998,1
14337,Mg4 Fe4 As4 O20,1.9847000000000001,1
14338,Al2 Cu2 W4 O16,0.8695000000000004,13
14339,Ca1 V4 O10,0.9802,38
14340,Ca2 La2 Cr2 Bi2 O12,0.0,7
14341,V4 Zn2 O8,1.3592999999999997,160
14342,Pr2 Cu1 O4,0.0,139
14343,Sc1,0.0,12
14344,Zr1 Pb1 O3,2.2792000000000003,221
14345,Ce1 Si5,0.0,71
14346,Rb1 Nb1 O3,1.3563000000000003,221
14347,Sr2 Ca6 Ti2 Mn6 O24,0.0,38
14348,Sr3 Ca5 Ti1 Mn7 O24,0.0,8
14349,Ca1 Ni5 H1,0.0,38
14350,V1 Fe2 Se4,0.0,12
14351,Pb4 S4,0.7614000000000001,11
14352,Si2 Pt6,0.0,127
14353,Na4 Tl4,0.0,194
14354,Mn12 N16,0.0,62
14355,Ce1 Se2,0.8812000000000002,166
14356,Sr2 Ti2 S6,0.0,194
14357,U2 Si4 Au4,0.0,129
14358,Ho2 Sn6,0.0,38
14359,U2 Cu4 Sn4,0.0,129
14360,Yb2 Ge6 Pd1,0.0,38
14361,Pb4 S4,1.2228999999999997,11
14362,Al6 Os2 U4,0.0,194
14363,Zn4 In4 O10,0.5212000000000003,186
14364,P8 Au8 S8,0.7570000000000006,61
14365,La6 Mg6,0.0,8
14366,Mg8 Sn4,0.0,63
14367,Mg4 Ti8,0.0,63
14368,Sr5 Mg1,0.0,187
14369,Cr4 Co4 Si4,0.0,62
14370,In1 Ag1 S2,0.4255,160
14371,In1 Cu1 S2,0.05480000000000018,160
14372,Cu96 Se48,0.07629999999999981,14
14373,Mg4 Mn8 O16,0.7654999999999998,14
14374,Ba6 Sr2 Co2 Cu6 O24,0.0,38
14375,Li9 Mn2 Co5 O16,0.6930000000000001,8
14376,Li9 Mn2 Co5 O16,0.5705,10
14377,Y3 Cd1,0.0,221
14378,V16 Cr1 O41,0.02749999999999997,25
14379,V1 Fe7 P12 O48,0.0,1
14380,Sr2 Ca4 I12,3.5626,14
14381,Na2 Si2 P2 C2 O14,5.3309,4
14382,Tc12 Bi2 O36,0.0,15
14383,Ce8 Au4,0.0,62
14384,Cr4 Si4 Ni4,0.0,62
14385,Yb1 B12,0.12899999999999956,225
14386,Ce1 Mn4 Co8,0.0,139
14387,Mn2 S2 O10,0.0,15
14388,Yb2 Ga8 Ge4,0.0,108
14389,Nd1 Mn3 V4 O12,0.0,204
14390,Ba4 Ge12,0.0,139
14391,Na1 Mn3 V4 O12,0.0,204
14392,Rb2 Li1 Nb1 F6,0.0,225
14393,Rb2 Na1 Ga1 Br6,1.4401,225
14394,K3 Sm1 Cl6,4.5123,225
14395,K2 Pr1 Ag1 Br6,2.9851,225
14396,K2 Cu1 Sb1 I6,0.0,225
14397,K2 Y1 Ag1 I6,2.5088999999999997,225
14398,K2 Rb1 Tm1 Cl6,4.4297,225
14399,K2 Tl1 In1 I6,0.8332999999999999,225
14400,Rb2 Bi1 Au1 Br6,0.2579,225
14401,Rb2 Ga1 Ag1 Br6,0.0,225
14402,Cs2 Rb1 Ga1 I6,0.9753000000000001,225
14403,K2 In1 Sb1 Br6,0.23750000000000004,225
14404,K2 Hg1 Sb1 I6,0.0,225
14405,K2 Hg1 Rh1 F6,0.0,225
14406,Cs1 K2 Ga1 F6,5.3218,225
14407,Cs2 Sc1 Cu1 F6,1.8078000000000003,225
14408,Mo6 Ir2,0.0,223
14409,Ru1 Pt1,0.0,123
14410,Ti27 Cu27,0.0,221
14411,Li8 V4 P4 O20,1.5208,2
14412,Ga1 Ag1,0.0,221
14413,Rh5 Tb1,0.0,191
14414,Na2 V9 Mo1 H35 N4 O38,0.8077,1
14415,Li3 Mn1 Co2 O6,0.0024999999999999467,2
14416,Li3 Mn1 Co2 O6,0.04460000000000042,2
14417,Li3 Mn1 Co2 O6,0.2834000000000003,12
14418,Li6 Co4 O10,0.0,12
14419,Li5 Mn1 Co2 O8,0.0,6
14420,Li4 Mn1 Co3 O8,0.6206999999999998,2
14421,Li6 Co4 O10,0.3917999999999999,2
14422,Li5 Co3 O8,0.2896000000000001,2
14423,Li6 Mn2 Co2 O10,0.26180000000000003,2
14424,Li4 Mn1 Co3 O8,0.6722000000000001,2
14425,Li6 Mn2 Co2 O10,0.2915000000000001,2
14426,Li4 Mn1 Co3 O8,0.0,12
14427,Li6 Co4 O10,0.4438,2
14428,Li8 Co6 O14,0.43630000000000013,2
14429,Li7 Co5 O12,0.42700000000000005,2
14430,Li5 Mn2 Co1 O8,0.37580000000000036,6
14431,Li5 Mn2 Co1 O8,0.13549999999999995,8
14432,Li8 Mn2 Co4 O14,0.5390000000000001,2
14433,Li8 Mn2 Co4 O14,0.9367000000000001,2
14434,Li8 Mn2 Co4 O14,0.5424000000000002,1
14435,Li8 Mn2 Co4 O14,0.4336000000000002,5
14436,Li7 Mn2 Co3 O12,0.49650000000000016,2
14437,Li7 Mn2 Co3 O12,0.25580000000000025,2
14438,Li7 Mn2 Co3 O12,0.4234,2
14439,Li7 Mn2 Co3 O12,0.0,5
14440,Li9 Mn2 Co5 O16,0.20429999999999993,2
14441,Li9 Mn2 Co5 O16,0.3796999999999997,2
14442,Li9 Mn2 Co5 O16,0.6448,2
14443,Li9 Mn2 Co5 O16,0.5430000000000001,2
14444,Li9 Co7 O16,0.0,2
14445,Li9 Mn2 Co5 O16,0.6739000000000002,2
14446,Li9 Mn2 Co5 O16,0.6360000000000001,1
14447,Li9 Mn2 Co5 O16,0.6584000000000003,1
14448,Li9 Mn2 Co5 O16,0.5445000000000002,2
14449,Li9 Mn2 Co5 O16,0.38390000000000013,2
14450,Li9 Mn2 Co5 O16,0.7481,2
14451,Li9 Mn2 Co5 O16,0.7415000000000003,5
14452,Li9 Mn2 Co5 O16,0.7215000000000003,5
14453,Li9 Mn2 Co5 O16,0.5734000000000004,1
14454,Li9 Mn2 Co5 O16,0.6528999999999998,1
14455,Li9 Mn2 Co5 O16,0.8228,1
14456,Li9 Mn2 Co5 O16,0.6979000000000002,1
14457,Li9 Mn2 Co5 O16,0.7550000000000003,1
14458,Li9 Mn2 Co5 O16,0.1741999999999999,3
14459,Li9 Mn2 Co5 O16,0.8342999999999998,1
14460,Li9 Mn2 Co5 O16,0.7955000000000001,1
14461,Li9 Mn2 Co5 O16,0.6785999999999999,1
14462,Li9 Mn2 Co5 O16,0.6183000000000001,1
14463,Li9 Mn2 Co5 O16,0.6156999999999999,1
14464,Li9 Mn2 Co5 O16,0.2246999999999999,1
14465,Li9 Mn2 Co5 O16,0.7480000000000002,1
14466,Li9 Mn2 Co5 O16,0.633,1
14467,Li9 Mn2 Co5 O16,0.3975000000000004,1
14468,Li9 Mn2 Co5 O16,0.3867999999999996,12
14469,Li9 Mn2 Co5 O16,0.7591999999999999,12
14470,Li9 Mn2 Co5 O16,0.5781000000000001,12
14471,Mn3 Nb1 Fe2 P6 O24,0.0,146
14472,Li4 V4 O12,1.9577999999999998,15
14473,Li4 V4 O8,0.024700000000000166,141
14474,Mn7 Cu1 P12 O48,0.0,1
14475,Li8 Ni8 P8 O32 F8,0.0,6
14476,Li4 Fe4 P4 O16,3.1854999999999998,4
14477,Li2 Fe4 P10 O30,3.9749,9
14478,Li2 Cu4 C4 O14,0.0,1
14479,Li7 V3 Ni1 P6 O24,0.008299999999999752,146
14480,Li7 V3 Si2 O12,1.6265999999999998,12
14481,Li9 Nb7 V12 O48,1.3658,1
14482,Li10 Mn4 P6 O24,3.6673,1
14483,Li8 V18 O36,1.0338000000000003,55
14484,Li4 V3 Ni2 Sb3 O16,0.0,8
14485,Li16 V8 Si4 P8 O48,1.9651000000000005,1
14486,Li8 Ti6 Mn4 Fe8 O36,1.056,26
14487,Li8 Ti6 V12 O36,0.9651000000000001,26
14488,Li16 V8 Si4 P8 O48,1.8305999999999996,1
14489,Li4 Mn3 Co1 Cu2 P6 O24,0.034399999999999764,1
14490,Li4 Mn2 Fe1 Ni3 P6 O24,0.0,1
14491,Li3 Ti3 V1 O8,0.0,166
14492,Li10 V5 O10 F5,0.9470999999999998,1
14493,Li4 V2 Fe6 O16,1.4699,1
14494,Li6 Mn8 P16 O56,0.028800000000000048,1
14495,Li2 V4 Cu1 Ni1 O12,0.018299999999999983,5
14496,Li6 Mn8 P16 O56,0.0035000000000000586,7
14497,Li4 V4 Cu2 P6 O24,0.399,5
14498,Li2 Mn1 P2 O8,0.0,2
14499,Li2 Mn1 Co1 O4,0.0,119
14500,Li4 Fe6 O12,0.0,64
14501,Fe12 O12 F12,0.3136000000000001,6
14502,Fe12 O12 F12,0.0,6
14503,Fe10 O4 F16,1.2262,2
14504,Fe10 O4 F16,0.2003999999999999,31
14505,Fe6 O2 F10,0.24919999999999987,12
14506,Fe10 O5 F15,1.017,1
14507,Er2 Zr2 O7,4.3508000000000004,12
14508,Eu8 Zr8 O24,0.46249999999999947,198
14509,Fe16 O24,1.5223,61
14510,Cr4 P16 O48,0.3963,14
14511,Co21 As11 O48,0.0,1
14512,Y4 Al1 Si2 O10 F5,0.0,1
14513,Na2 Se4 O12,0.1975,7
14514,Ni2 F6,2.5061,2
14515,Fe4 Se12 O36,0.672,14
14516,Be16 B8 O32,0.19170000000000004,61
14517,Ca2 Nb3 Cu1 Br1 O10,0.0,123
14518,Be12 H24 O24,4.0089999999999995,4
14519,Ac6 Lu2,0.0,194
14520,Ag6 As2,0.0,194
14521,Ag1 Pb3,0.0,139
14522,Ca2 Pr6,0.0,194
14523,Cu3 Sb1,0.0,221
14524,Eu3 Mg1,0.0,25
14525,Hf6 Bi2,0.0,194
14526,K1 Te1 O3,0.0,221
14527,La6 Yb2,0.0,194
14528,Lu6 Sn2,0.0,194
14529,Mg16 Al12 V1,0.0,160
14530,Mg1 Tl3,0.0,225
14531,Na6 Ca2,0.0,194
14532,Na1 Li5 N2,0.57,6
14533,Na1 Pt1,0.0,187
14534,Nb1 Si1 Ru2,0.0,225
14535,Os2 Rh6,0.0,194
14536,Pr2 Eu6,0.0,194
14537,Rb8 Mg4 H16,3.3120000000000003,62
14538,Yb1 Ni1 O3,0.0,221
14539,Tm6 Sn2,0.0,194
14540,Yb3 Al1,0.0,139
14541,Yb3 Pm1,0.0,225
14542,Y2 Ga2 Fe15,0.0,166
14543,V10 Ga6,0.0,193
14544,V8 O16,0.7570000000000001,62
14545,La6 Lu2 Be2 S14,1.4936999999999996,173
14546,La6 Be2 Ga2 S14,1.1343999999999994,173
14547,Nd2 Co18 Si4,0.0,141
14548,Cu4 H8 C4 S8 N4,1.6885,19
14549,Cr8 Fe4 O16,2.0405999999999995,62
14550,Zn2 B2 P4 Pb2 O18,0.3185,2
14551,Mn2 Ni21 B6,0.0,225
14552,Ti6 Al16 Ru7,0.0,225
14553,C12 N16,1.1043999999999998,187
14554,Co22 B6 Sb1,0.0,225
14555,Bi8 P4 O24,0.1267999999999998,14
14556,Yb5 Al17 Fe4 Si6,0.0,123
14557,Sr4 V2 P6 O24,1.1067,15
14558,Ti42 Re50,0.02179999999999982,167
14559,K8 Si16 Sb4 O44,0.3169999999999997,14
14560,Hg4 H80 C24 N8 Cl16,3.2958,14
14561,Al8 Fe2 Si4 O24,0.0,63
14562,K8 U4 H16 C16 S4 N4 O40,1.6604,14
14563,V4 Te4 H44 N8 O32,2.6667,14
14564,Y5 Mg5 Al12 Fe4 Si6,0.0,123
14565,As2 H18 C4 S2 N8 O8,3.1331,2
14566,Zn6 P8 H48 C12 N4 O24,4.9735,15
14567,Ag12 P12 H12 N12 O24,2.2365,14
14568,K6 I12 O36,0.0,43
14569,Al4 H84 C12 S12 O60,5.331099999999999,14
14570,K4 U2 H12 C8 Se2 O30,2.0887000000000002,2
14571,Tm8 Ni2 B26,0.0,128
14572,U6 S6 O32,0.0,87
14573,Cs4 V8 P12 O56,0.13319999999999999,14
14574,Ce4 H4 C12 O24,0.10049999999999981,33
14575,Co4 P4 H32 C12 N12 O28,2.8295,14
14576,Sm22 Hg90,0.010900000000000354,216
14577,Rb4 B24 H72 N16,4.3023,58
14578,Ca4 Ge12,0.0,139
14579,K3 Eu1 F6,0.0,225
14580,Pr2 Cu3 Ge3,0.0,38
14581,Co1 Sb1 Rh2,0.0,139
14582,Co3 Ni3 P3,0.0,189
14583,Sr2 Ga1 Re1 O6,0.0,225
14584,Rb3 La1 Br6,3.8324999999999996,225
14585,Ti6 As2,0.0,223
14586,Yb6 Sb8 Au6,0.0,220
14587,Yb4 Mg2 Ti2 O12,0.0,14
14588,Tb4 Fe34 H6,0.0,194
14589,Ta4 P8 O28,0.0,205
14590,Sr2 La2 Tl2 Cu3 O10,0.0,139
14591,Sn7 S2 I6,0.15419999999999945,12
14592,P2 H10 C2 N4 O6,4.2912,2
14593,Na4 Sr1 U3 O12,2.0704000000000002,229
14594,Na3 Eu2 Si2 Te6,0.0,12
14595,Li2 S2 O8,0.04709999999999992,173
14596,K2 Al4 Si8 O24,1.0110999999999999,15
14597,Ge6 Pb10 O24,0.0,176
14598,Eu4 In4 O12,0.0,62
14599,Er3 Co6 Sn5,0.0,71
14600,Fe2 Bi12 P4 O28 F4,1.9482999999999997,15
14601,Ce12 Si2 Ni8,0.0,176
14602,Zr1 Ti1 Mo4,0.0,216
14603,Zr1 Ti1 Zn4 O8,1.7447,12
14604,Yb14 Mg6 Si16,0.0,4
14605,Zn18 Fe8,0.0,8
14606,Y1 Bi1 O2 F2,2.1803,115
14607,Y2 Co4 B8 Rh4,0.0,105
14608,V1 Re1 O4,0.0,65
14609,V7 S8,0.0,12
14610,Tm4 U1 S7,0.0,8
14611,U1 Cu3 Pd2,0.0,44
14612,U2 Co1 Si3,0.0,25
14613,U2 Ge2 Au2,0.0,12
14614,Tm1 In7 Cu5,0.0,44
14615,Ti1 Be1 B1,0.0,187
14616,U4 Co2 Se4 S6,0.0,15
14617,Th1 Zr2,0.0,69
14618,Th1 Fe2 Ni3,0.0,191
14619,Th1 U1 H8 C8 O20,0.28910000000000013,21
14620,Tb2 Ge2 Pd2,0.0,12
14621,Sr2 Y1 Fe1 Cu2 O7,0.0,47
14622,Sr8 Sn1 Pb3 O16,1.3438000000000003,123
14623,Sr8 Nb4 O18,2.7391999999999994,71
14624,Sr6 Ca1 Y2 Ti1 Cu6 Hg2 O20,0.0,47
14625,Sr2 La2 Mn1 Zn1 O8,0.0,123
14626,Sm4 Al4 Ni4,0.0,38
14627,Sm3 Ni7 B2,0.0,38
14628,Re3 Rh1,0.0,187
14629,Pr1 Tl2 In1 Te4,1.1909,121
14630,Pr2 Co5 Ni5,0.0,47
14631,Pr1 Er3 Mn8,0.0,8
14632,Rb32 O6,0.0875,22
14633,Rb4 U6 P8 H8 O38,1.6963000000000001,9
14634,Nb3 V3 Ge2,0.0,155
14635,Nd2 Fe20 Mo4 N1,0.0,12
14636,Nb12 Ga3 Ge1,0.0,47
14637,Nd10 Si20 Ni2 Ru6,0.0,6
14638,Nd12 Si4 Mo16 O56,1.3266,33
14639,Mn1 Zn3,0.0,187
14640,Mo18 Ru12,0.0,35
14641,Mn2 Co2 B4,0.0,26
14642,Li1 Er1 S2,0.3349000000000002,123
14643,Li1 Tb1 Se2,0.09089999999999998,123
14644,Li1 La1 Nb4 O12,1.3315,139
14645,Mn4 In4 Se5 S5,0.0,1
14646,Li1 La2 Nb8 O24,0.0,65
14647,Li8 P1 Se6,0.0,82
14648,La1 Y1 Mn2 Si2,0.0,99
14649,Li4 Co2 Cl8,0.20600000000000018,74
14650,K3 Al9 Si9 O36,0.35960000000000014,144
14651,Hg1 Pt3,0.0,123
14652,Ho2 Co5 Ni5,0.0,47
14653,Ge1 Bi1 Pd6,0.0,166
14654,Eu1 Si1 Ag1,0.0,38
14655,Fe4 Cu1 Ni1 O8,0.1891999999999996,12
14656,Dy4 Nb2 Ga2 O14,1.9330999999999996,74
14657,Fe30 Si6 P6,0.0,8
14658,Eu2 Co5 Ge3,0.0,99
14659,Fe3 Co1 Bi4 As4 O24,0.04859999999999998,2
14660,Fe30 Si6 As6,0.0,8
14661,Cu1 Ni4 O5,0.0,139
14662,Dy2 Tl2 Cu2,0.0,12
14663,Co4 Si4 Mo4,0.0,38
14664,Co1 Re2 Mo2 S8,0.15030000000000054,44
14665,Cr2 In2 Ni2 S8,0.0,74
14666,Ce1 Al3 Cu1,0.0,119
14667,Cd2 Ga1 Ag1 Se2 S2,0.006699999999999928,8
14668,Ca1 Mg2 Al6 O12,3.2795999999999994,174
14669,Ca4 Nb4 N4 O8,0.6050999999999997,14
14670,Ca1 Cd1 S2,2.2356000000000003,166
14671,Be1 Si1 Ni2,0.0,123
14672,Cu6 Pb2 Se6 N2 O27,0.0,1
14673,Ca2 Mg6 Cu22 O30,0.0,6
14674,Ba10 Co10 O26 F2,0.0,40
14675,Ag1 Mo6 Se4 S4,0.0,1
14676,Ba2 Ca1 Cu2 Mo1 O8,0.0,123
14677,Be12 Pd1,0.0,139
14678,Si2 Ca1,0.0,191
14679,P2,0.0,166
14680,O2 Pr1,0.0,225
14681,Mg2 Si4 Yb4,0.0,127
14682,La1 Ir5,0.0,191
14683,N6 O12 K2 Co1 Ba1,1.0293,69
14684,O4 Ni1 Pr2,0.5583,139
14685,O6 Sr2 Cd1 W1,3.5352,225
14686,Li2 O10 V4,0.3474999999999999,59
14687,O4 Ni2 Ba2,2.3034,63
14688,O4 Fe2 Y1,0.0,166
14689,O2 Mn3 Sr2 Sb2,0.0,139
14690,Eu1,0.0,229
14691,Ca3 In1,0.0,225
14692,Na2 Mn2 Sb2,0.0,129
14693,U1 Cu2 Ge2,0.0,139
14694,H8 Mg4,1.9527999999999999,62
14695,H8 O8 P4 Cd2,4.3757,15
14696,Si4 Ru6 La2,0.0,193
14697,Se22 Mo18,0.0,63
14698,C8 N12 Sr2,4.6654,15
14699,Th2 Zr4 H14,0.0,227
14700,Sn1 Au2 U1,0.0,225
14701,Cr1 Fe2 Ga1,0.0,225
14702,Sn1 Pt1 U1,0.0,216
14703,Cr2 P8 O24,0.09640000000000015,15
14704,Li2 O22 P6 Ni4,0.0,5
14705,Li2 V4 P6 O24,1.1028,15
14706,Sm4 Tm2 S8,0.0,122
14707,Nb16 Zn8 C4,0.0,227
14708,O20 Fe2 Se8,0.0,30
14709,Y2 Zr24 O51,2.4945000000000004,25
14710,Mn4 O16 P4,1.0778,14
14711,Cr1 Li2 O24 P8,2.7314999999999996,1
14712,Cr8 O52 P12,0.0,14
14713,Nb12 Zr8 Ge16,0.0,62
14714,Tl12 Fe8 S16,0.0,62
14715,Se4 N4 S2 As4 F24,2.2391,5
14716,Sn2 O8 C4,2.6084,15
14717,H48 C12 N4 F12,7.2752,62
14718,Li2 Er2 P8 O24,5.7413,15
14719,Sr2 Fe1 W1 O6,0.0,2
14720,Mg2 H16 C4 S4 N4 O8,4.3106,14
14721,Mg4 H24 C8 O24,4.9673,61
14722,Sb4 C8 N4 O8 F24,4.6213999999999995,14
14723,Si32 O64,5.8698,127
14724,Sb8 Os2 C12 O12 F44,4.434,14
14725,O10 C2 Se2 Co3,2.0915,2
14726,F4 Co1 Rb2,0.0,139
14727,Ag4 S2,0.36839999999999984,4
14728,Sr2 Co1 Mo1 O6,0.8403,139
14729,La4 Co2 O8,0.0,64
14730,Co4 Ge2 O8,1.1406,2
14731,Ag6 N10 O12,2.1573,36
14732,Yb4 Mn2 Sn5,0.0,12
14733,Ce2 Sm2 I8,0.0,2
14734,Ni2 H40 C16 N20,2.0088999999999997,14
14735,Gd1 Rh5,0.0,191
14736,Na1 Mn1 O2,0.0,166
14737,Zr8 Cu2 P2,0.0,124
14738,Na16 Ti8 Si8 O40,3.1096000000000004,84
14739,Li8 Mo6 O16,0.0,166
14740,H16 Pt2 O12,1.6174000000000002,1
14741,H28 N4 O24,1.6933,4
14742,V6 H4 O13,0.6082999999999998,12
14743,Fe4 Si2 Sn7 O16,0.0,164
14744,Ca2 P1 I1,1.6319000000000004,1
14745,La1 H3 C3 O6,4.0564,160
14746,Al4 Si4 H4 O16,5.5699,14
14747,Sr2 Co24 O38,0.0,194
14748,Eu6 O9,0.0,12
14749,Mo8 Cl32 O4,0.9227,13
14750,Li3 Sn1 P6 O18,0.22160000000000002,1
14751,Hg4 Sb2 F12,0.0,15
14752,Sm8 Ag4 Se14,1.5147,7
14753,Na4 Ru4 O8,0.10020000000000007,1
14754,K4 Sn10 Cl24,2.4961,6
14755,Ca2 La1 F7,5.8738,1
14756,Ca12 Al12 Si6 H4 O48,0.38170000000000015,1
14757,Sr1 La9 Mg1 Ga9 O29,2.0728999999999997,1
14758,Rb4 Al12 Cd4 Si12 O48,1.8815,1
14759,Sb4 P20 O60,0.0,14
14760,W18 C8,0.0,155
14761,Nb6 Bi20 Cl36,0.0,143
14762,Tb9 Ba18 Nb3 Sn6 O54,0.0,8
14763,Zn1 As4 H8 O16,0.12529999999999997,2
14764,Ca4 H16 N24 O8,4.184699999999999,14
14765,Zn2 P4 H8 O8,4.1184,51
14766,Fe4 P8 O28,0.0,1
14767,Cs4 Zr4 Zn2 H24 O12 F24,4.1025,14