Index,Composition,bandgap,spgN
5380,Pr2 Mo4 O12,0.5323000000000002,1
5381,Sb8 P8 O36,0.8770000000000002,62
5382,Y4 V12 O24,1.1778,12
5383,Y4 Cr12 O24,1.5385999999999997,12
5384,Sr4 Y4 Mn4 O14,0.006700000000000372,46
5385,Ca2 Mn4 S8,0.0,15
5386,Li2 Cr4 O8,0.7686999999999999,74
5387,Mn4 Zn1 O8,0.0,1
5388,Mg2 Ti9 O13,0.0,2
5389,Zn2 Cu9 O13,0.0,2
5390,Nb4 Zn4 Bi2 O16,0.0,1
5391,Mg2 Sn9 O13,0.0,2
5392,Y1 Cu3 Mo4 O12,0.3709000000000007,2
5393,Ca2 Cr9 O13,0.44099999999999984,2
5394,Ba2 Mg2 Tl2 Cu3 O10,0.0,1
5395,Ti10 Te6 O36,1.0388999999999995,5
5396,Sr4 Y2 Cu4 Sn2 O14,0.0,1
5397,Ca1 Bi4 O8,0.45489999999999986,1
5398,Ca4 Co4 O8,1.6793999999999998,2
5399,Ca4 Cr4 O8,1.5743,1
5400,Sr4 Al2 Cu4 Bi2 O14,0.009599999999999831,1
5401,Te6 Mo10 O36,1.5547999999999997,5
5402,Mn2 Zn2 Si2 O10,0.7772000000000001,1
5403,Mg2 Cr2 P2 O10,1.5456000000000003,1
5404,Ca2 Bi4 O8,1.1443000000000003,63
5405,Ca4 Y2 V2 O10,1.5755,9
5406,Al2 Bi6 F30,0.019799999999999596,11
5407,Mg6 Cr6 As8 O32,1.4471000000000003,14
5408,Ca6 Sn6 As8 O32,2.5585999999999998,14
5409,Al2 Ag2 W4 O16,1.5337999999999994,13
5410,V2 W4 O16,1.4065999999999999,13
5411,Mg2 Sn4 O8,1.1012000000000004,74
5412,Be12 Si12 Mo8 O48,3.8074000000000003,14
5413,Ca2 P6 W6 O26,0.9698000000000002,11
5414,Ca2 La2 Cr2 Co2 O12,0.0,7
5415,La2 Mg2 Ta2 Cr2 O12,2.1235,7
5416,Mg1 Ce1,0.0,221
5417,Te1 Sm1,0.0,221
5418,Er2 Sn2 Ge2,0.0,63
5419,Re2 N4,0.0,71
5420,Sr2 Ca6 Co8 O24,0.0,123
5421,Ba4 Sr28 Ti28 Mn4 O80,0.0,1
5422,La4 Sm4 Co7 Cu1 O24,0.0,8
5423,La28 Sm4 Mn28 Cu4 O80,0.0,1
5424,K12 Na20 V12 Mo20 O80,0.05750000000000011,1
5425,Ga2 Cu4,0.0,74
5426,Ba1 Fe2 Se4,0.0,87
5427,Mg7 Ti1,0.0,225
5428,Bi8,0.0,64
5429,Mg4 Ni2 H4,0.0,12
5430,La2 Fe2 Sb4,0.0,129
5431,Cs4 I4,3.1258,62
5432,Pr2 Fe2 Sb4,0.0,129
5433,Ce4 Se8,0.5395999999999999,62
5434,Li4 Zn2 Si2,0.0,164
5435,Ce2 B4 C4,0.0,131
5436,Zn3 Cr1 Te4,0.0,215
5437,La6 Mg6,0.0,8
5438,La6 Mg6,0.0,38
5439,Mg6 Sn6,0.0,38
5440,Sr6 Mg2,0.0,139
5441,Y4 Mg8,0.0,12
5442,Y4 Mg8,0.0,38
5443,Mg2 Zn4,0.0,189
5444,Mg4 Zn2,0.0,164
5445,Mg10 Sb2,0.0,8
5446,Mg4 Ga12,0.0,225
5447,Mg3 Ga3,0.0,156
5448,Sr3 Mg1,0.0,187
5449,Sr1 Mg3,0.0,221
5450,Y1 Mg3,0.0,187
5451,Mg2 Zr2,0.0,51
5452,Sr3 Mg1,0.0,25
5453,Mg6 Bi6,0.0,5
5454,Al4 Zn4 S10,0.03279999999999994,186
5455,Al2 Zn1 S4,0.4131999999999998,156
5456,Al4 Zn2 S8,0.14759999999999973,160
5457,H24 C4 N4 F4,5.7311,57
5458,In1 Ag1 O2,0.0,160
5459,Mg30 Mn1 B1 O32,0.4504999999999999,123
5460,Ce1 Mg14 Ni1,0.0,38
5461,Mg14 Co1 Ni1,0.0,38
5462,La7 Sm1 Cr1 Fe7 O24,0.8422000000000001,160
5463,Ca6 Sn6 S18,1.7027,2
5464,Ca8 Sn6 S20,0.9384000000000001,4
5465,Ca12 Sn12 S36,1.7236000000000002,14
5466,Ca1 Cd1 Sn1,0.0,216
5467,Mg6 Si6,0.0,2
5468,Li9 Mn7 O16,0.0,12
5469,Li9 Mn2 Co5 O16,0.0,6
5470,Li9 Mn2 Co5 O16,0.0,6
5471,Li9 Mn2 Co5 O16,0.058399999999999785,6
5472,Li9 Mn2 Co5 O16,0.0,6
5473,Li9 Mn2 Co5 O16,0.0,1
5474,Li9 Mn2 Co5 O16,0.0,8
5475,Li9 Mn2 Co5 O16,0.0,8
5476,Li9 Mn2 Co5 O16,0.0,8
5477,Li9 Mn2 Co5 O16,0.0,8
5478,Li9 Mn2 Co5 O16,0.22449999999999992,8
5479,Li9 Mn2 Co5 O16,0.0,8
5480,Li9 Mn2 Co5 O16,0.0,8
5481,Li9 Mn2 Co5 O16,0.0,10
5482,Li9 Mn2 Co5 O16,0.0,10
5483,Li9 Mn2 Co5 O16,0.0,2
5484,Li9 Mn2 Co5 O16,0.0,10
5485,Li9 Mn2 Co5 O16,0.0,12
5486,Li9 Mn2 Co5 O16,0.0,12
5487,Li9 Mn2 Co5 O16,0.06150000000000011,6
5488,V3 Bi8 O22,0.0038000000000000256,2
5489,V17 Pb3 O32,1.2400000000000002,1
5490,Li4 Fe4 P16 O52,0.0,1
5491,Co3 P4 O14,0.0,2
5492,Li4 Mn4 P16 O48,0.06619999999999981,1
5493,Nb8 Fe2 P2,0.0,124
5494,Eu4 Mg4 Ni4,0.0,198
5495,Cr2 In4 S8,0.0,227
5496,Sm1 Mn8 Ni4,0.0,139
5497,Bi4 Pb1 Cl2 O6,0.0,139
5498,Pr4 Fe3 B6,0.0,166
5499,K4 Mo2 S4 O4,2.3152000000000004,15
5500,Mo6 S8,0.0,2
5501,Mn1 Re2 H2 O10,0.39670000000000005,12
5502,Yb1 P3 O10,0.025700000000000056,5
5503,B1 H2 S3 N3 F4,2.3506,1
5504,Li4 Ta4 O12,2.4878,62
5505,Na3 As1 F6,3.8108,225
5506,Rb2 Pd1 Au1 F6,0.0,225
5507,Cs1 K2 Sc1 F6,5.5006,225
5508,K2 Rb1 Sb1 F6,3.4772,225
5509,K2 Rb1 Nd1 F6,5.1535,225
5510,Rb2 Na1 Ta1 Cl6,0.0,225
5511,Rb3 Ga1 Br6,2.1662,225
5512,K2 Ag1 Sb1 F6,2.0464,225
5513,K2 Y1 Cu1 I6,1.7749,225
5514,K2 Rb1 Tl1 Br6,1.5429,225
5515,Na2 In1 Ag1 F6,1.0738,225
5516,Rb2 Tl1 Au1 F6,0.0,225
5517,Na3 Tm1 Cl6,3.8983,225
5518,K2 Al1 Tl1 Br6,2.6754000000000002,225
5519,K2 Na1 Ga1 Br6,1.4571999999999998,225
5520,Rb2 Y1 Au1 Cl6,2.074,225
5521,Cs2 Li1 Ta1 Br6,0.0,225
5522,K2 Hg1 Au1 F6,0.0,225
5523,K2 Al1 In1 I6,0.8125,225
5524,K2 Ce1 Cu1 I6,0.20779999999999976,225
5525,K2 Hg1 Sb1 Cl6,0.0,225
5526,K2 In1 Hg1 F6,0.0,225
5527,Cs1 K2 Ir1 F6,1.9187,225
5528,Cs1 K2 In1 F6,4.6521,225
5529,Cs1 K2 As1 F6,3.4503000000000004,225
5530,Cs2 In1 Au1 F6,0.6839,225
5531,Cs2 Al1 Hg1 Br6,0.0,225
5532,Cs2 K1 Au1 Br6,0.0,225
5533,Cs2 In1 As1 Cl6,0.0,225
5534,Cs3 Tl1 I6,0.8173,225
5535,Cs2 Ga1 Hg1 Cl6,0.0,225
5536,Na2 Li1 Lu1 Cl6,4.0318,225
5537,Cs2 Pr1 Au1 Cl6,2.1629,225
5538,Cs2 La1 Au1 Cl6,2.2752,225
5539,Tb1 Rb2 Au1 Cl6,2.0524,225
5540,Rb2 Dy1 Au1 Cl6,2.0272,225
5541,Rb2 Nb1 Hg1 F6,0.0,225
5542,Rb2 Tl1 Ga1 I6,0.5267,225
5543,V1 In3 S4,1.5717000000000003,217
5544,La4 Cu3 Se1 O12,0.0,229
5545,Rb2 Co2 O4,0.17520000000000002,227
5546,Cs1 Si1 I3,0.7684000000000002,1
5547,Zr1 Ir1,0.0,221
5548,La2 O6,2.3416,12
5549,Sr6 La6 Ta6 Co6 O36,0.0,156
5550,Sr9 Th1 Cl22,2.0234,65
5551,Sr3 La1 Cu2 Hg1 Bi1 O10,0.0,1
5552,Nb39 C34,0.0,164
5553,Na14 Zn6 Ga2 Si8 O32,2.1772,7
5554,Li3 Mn1 Co2 O6,0.0,164
5555,Li5 Mn1 Co2 O8,0.0,10
5556,Li5 Mn1 Co2 O8,0.0,12
5557,Li6 Mn2 Co2 O10,0.0,1
5558,Li7 Mn2 Co3 O12,0.0,12
5559,Li7 Mn2 Co3 O12,0.0,12
5560,Li7 Mn2 Co3 O12,0.0,12
5561,Li7 Mn2 Co3 O12,0.0,12
5562,Li7 Mn2 Co3 O12,0.05929999999999991,12
5563,Li8 Mn2 Co4 O14,0.12749999999999995,12
5564,Li8 Mn2 Co4 O14,0.09260000000000002,12
5565,Li8 Mn2 Co4 O14,0.238,1
5566,Li8 Mn2 Co4 O14,0.1971999999999996,1
5567,Li8 Mn2 Co4 O14,0.2344999999999997,1
5568,Li8 Mn2 Co4 O14,0.06849999999999978,1
5569,Li8 Mn2 Co4 O14,0.0,8
5570,Li8 Mn2 Co4 O14,0.0,8
5571,Li8 Mn2 Co4 O14,0.0,8
5572,Li7 Mn2 Co3 O12,0.0,2
5573,Li7 Mn2 Co3 O12,0.0,10
5574,Li7 Mn2 Co3 O12,0.0,2
5575,Li7 Mn2 Co3 O12,0.0472999999999999,1
5576,Li7 Mn2 Co3 O12,0.0,1
5577,Li7 Mn2 Co3 O12,0.0,1
5578,Li7 Mn2 Co3 O12,0.0,1
5579,Li7 Mn2 Co3 O12,0.16620000000000035,1
5580,Li7 Mn2 Co3 O12,0.0049000000000001265,1
5581,Li7 Mn2 Co3 O12,0.0,1
5582,Li7 Mn2 Co3 O12,0.0,1
5583,Li7 Mn2 Co3 O12,0.399,1
5584,Li7 Mn2 Co3 O12,0.2774000000000001,1
5585,Li7 Mn2 Co3 O12,0.0,8
5586,Li7 Mn2 Co3 O12,0.0,8
5587,Li7 Mn2 Co3 O12,0.0,6
5588,Li7 Mn2 Co3 O12,0.0,6
5589,Li7 Mn2 Co3 O12,0.0,8
5590,Li7 Mn2 Co3 O12,0.0,6
5591,Li7 Mn2 Co3 O12,0.0,8
5592,Li7 Mn2 Co3 O12,0.0,6
5593,Li7 Mn2 Co3 O12,0.0,8
5594,Li9 Co7 O16,0.0,10
5595,Li9 Mn2 Co5 O16,0.0860000000000003,2
5596,Li9 Mn2 Co5 O16,0.0,2
5597,Li9 Mn2 Co5 O16,0.0,2
5598,Li9 Mn2 Co5 O16,0.0,2
5599,Li9 Mn2 Co5 O16,0.0,2
5600,Li9 Mn2 Co5 O16,0.0,1
5601,Li9 Mn2 Co5 O16,0.033600000000000296,1
5602,Li9 Mn2 Co5 O16,0.08279999999999976,1
5603,Li9 Mn2 Co5 O16,0.05750000000000011,1
5604,Li9 Mn2 Co5 O16,0.0,1
5605,Li9 Mn2 Co5 O16,0.17110000000000003,1
5606,Li9 Mn2 Co5 O16,0.1868000000000003,1
5607,Li9 Mn2 Co5 O16,0.012399999999999967,1
5608,Li9 Mn2 Co5 O16,0.0,1
5609,Li9 Mn2 Co5 O16,0.0,1
5610,Li9 Mn2 Co5 O16,0.0,1
5611,Li9 Mn2 Co5 O16,0.0,1
5612,Li9 Mn2 Co5 O16,0.0,1
5613,Li9 Mn2 Co5 O16,0.0,12
5614,Li3 Cu3 B3 O9,0.0,6
5615,Li2 Cu4 P2 O8,0.4607999999999999,6
5616,Li4 Ti1 Cr2 Ni3 P6 O24,1.3600000000000003,1
5617,Li8 Ti8 Fe10 O36,0.17710000000000026,1
5618,Li4 Mn5 Cu1 O12,0.10210000000000008,12
5619,Li4 Mn3 V3 Cu2 O16,0.18409999999999993,1
5620,Li4 Nb3 V2 Ni3 O16,0.4457,1
5621,Li2 La3 Ti2 Nb2 O13,0.0,42
5622,Li2 Co3 Ni1 O8,0.0,160
5623,Li8 Co12 Sn4 O32,0.0,1
5624,Li4 Fe6 F16,1.5882,1
5625,Li4 Fe4 Co6 O20,0.0,6
5626,Fe6 O6 F6,0.0,6
5627,Fe4 Co12 O32,0.18800000000000006,1
5628,Fe6 O2 F14,2.5358,9
5629,Fe8 O14 F2,0.0,59
5630,Be2 Cl2 O2,0.0,166
5631,Be2 Cl2 O2,0.0,166
5632,Ag2 Pb2 O6,0.0,148
5633,Zn2 O4 F4,1.9437999999999998,1
5634,V4 Re4 O22,0.7106,36
5635,Y8 Si4 O20,3.8131000000000004,14
5636,Sm3 In3 Ni3,0.0,38
5637,Sc1 Cu3 Hg1 Se4,0.3179000000000003,215
5638,Na1 Fe3 H6 S2 O14,1.8278999999999999,166
5639,Mn10 Si10 O30,1.8947000000000003,2
5640,H12 N8 O18,2.7859,4
5641,K4 S4 O10,3.2946,11
5642,Cr2 W2 O8,0.0,12
5643,Co1 H1 O2,0.7122999999999999,1
5644,Cd1 Cu3 Ni1 Se4,0.0,215
5645,Ba4 O16,0.0,14
5646,Fe16 H20 O34,1.3021999999999998,1
5647,Al1 Cd3,0.0,139
5648,Ag2 Sn6,0.0,194
5649,Ba2 Ac6,0.0,194
5650,Ba6 Ac2,0.0,194
5651,Ba1 Tl1 O3,0.0,221
5652,Ca3 Pm1,0.0,225
5653,Cd1 Bi3,0.0,139
5654,Cd1 In3,0.0,225
5655,Ce3 Pm1,0.0,221
5656,Ce3 Hf1,0.0,139
5657,Eu1 Er1,0.0,187
5658,Eu6 Sb2,0.0,194
5659,Eu1 Ga1 Au2,0.0,225
5660,Eu6 Lu2,0.0,194
5661,Eu6 Tm2,0.0,194
5662,Ho2 Al1 Ru1,0.0,225
5663,Hg1 Bi3,0.0,139
5664,I2 Br4,0.0,136
5665,La3 Zn1,0.0,221
5666,La3 Zn1,0.0,139
5667,Li1 Ac1 O3,0.0,221
5668,Li2 Eu6,0.0,194
5669,Mg16 Al12 Br1,0.0,8
5670,Mg16 Al12 Cl1,0.0,1
5671,Mg16 Al12 Cl1,0.0,217
5672,Mg4 Sb2,0.0,12
5673,Mg5 Ge1,0.0,38
5674,Np4 O6,0.0,167
5675,Nd6 Zn2,0.0,194
5676,Pr2 Zn1 In1,0.0,225
5677,Sr3 Sn1,0.0,221
5678,Tb2 Yb6,0.0,194
5679,Tc3 Mo1,0.0,221
5680,Tc6 W2,0.0,194
5681,Tl3 Ag1,0.0,221
5682,Tl3 Ag1,0.0,139
5683,Tm1 Ga1 Ni2,0.0,225
5684,Zn3 Cr1,0.0,221
5685,La6 Mn2 S10,0.0,193
5686,Fe8 Co4 C4,0.0,62
5687,Ba2 Gd2 Co4 O11,0.0,47
5688,Fe8 Ni4 C4,0.0,62
5689,Mn12 Cu4 As8,0.0,62
5690,Lu1 H9 C5 N2 O8,4.492900000000001,5
5691,Mg12 O12,3.0186,192
5692,Y1 H9 C5 N2 O8,4.5146,5
5693,La6 Fe2 Co2 S14,0.0,173
5694,Ce2 S4 O17,0.11880000000000002,6
5695,Nd2 Mn3 Cu9 P7,0.0,6
5696,La6 Be2 Bi2 S14,1.7015000000000002,173
5697,La6 Fe4 S14,0.0,173
5698,Nd8 Mn2 S14,1.3567000000000005,173
5699,Th2 Al15 Ni10,0.0,71
5700,Al2 Zn2 H8 O4 F10,4.3992,74
5701,Yb6 Mn23,0.0,225
5702,Sm6 Mn23,0.0,225
5703,Na4 Ca2 P4 O16,0.0028000000000000247,4
5704,Na4 Zn4 Si4 O16,0.39749999999999996,19
5705,Fe2 B24 H8 O48,0.032299999999999995,14
5706,K8 Cr4 H20 C16 S16 N16 O12,2.3727,2
5707,Ni4 H128 C16 S8 N8 O64,4.9916,61
5708,Sm2 H18 C10 N4 O16,4.6078,20
5709,Sb8 H48 Pd4 C16 Cl16,1.474,14
5710,Gd4 H88 C28 N4 Cl8 O36,2.9847,14
5711,Fe8 As8 Pb4 O40,0.0,66
5712,V8 Cd2 Se6 O36,0.7463,2
5713,Fe10 B12 O36,0.0,59
5714,Sb4 P4 H8 F40,5.2423,14
5715,Ca4 U8 Se20,0.014000000000000234,62
5716,Yb2 P6 H12 O12,0.0,12
5717,Cu8 C4 O20,0.0,14
5718,Zn2 H20 C4 S6 N12 O8,3.7675,2
5719,K10 Tb2 H16 C16 O32,4.640700000000001,15
5720,B4 P8 Pb8 O36,0.8632000000000002,14
5721,Sn2 H14 C6 N2 O10 F2,3.0983,2
5722,Mo4 P16 H152 C52 N16 Cl16,2.5254000000000003,14
5723,Pb14 Cl4 O16,1.2151999999999998,4
5724,Ca4 Be4 P4 O20,0.5630999999999999,14
5725,Th16 Cr32 O144,0.1825,61
5726,Zn2 H48 C12 N28 O24,3.3802,15
5727,Na4 Cu4 Mo4 O20,0.0,62
5728,In6 H18 C18 O36,4.8935,173
5729,Ce12 As8 Cl4 O28,0.0,102
5730,Si41,1.2069000000000005,217
5731,Li4 V4 Cu8 O24,0.0,19
5732,Cd16 B8 O32,1.2823,203
5733,Sn2 H32 Se6 N14,1.7109999999999999,2
5734,Mg4 B24 H48 O70,0.23519999999999985,167
5735,Rb4 Yb4 S8 O36,0.34280000000000005,14
5736,Li4 V4 P4 O22,1.7685,18
5737,Re4 S24 N20 Cl24,1.0496999999999999,19
5738,Ho8 Co2 B26,0.0,128
5739,Cu2 Bi4 Se6 O22,0.1166999999999998,39
5740,Hg16 B8 O8 F32,0.15359999999999996,61
5741,Mn4 H48 N32 O60,2.9002999999999997,29
5742,Cu12 As4 O28,0.0,14
5743,Sb4 Ir2 C6 O6 F26,2.7699,2
5744,Mn32 O48,0.24259999999999993,148
5745,Co20 P8 O48,0.48130000000000006,19
5746,H48 S12 N24 O24,4.0626,14
5747,Fe12 P8 O36,0.05150000000000032,14
5748,Zn2 Cu4 H8 S4 O16,3.0791,14
5749,Ba2 P6 H20 C6 N2 O18,5.669499999999999,2
5750,K8 Th2 S8 O36,0.25060000000000004,2
5751,Ce4 Se8 O34,0.11790000000000012,9
5752,Nd2 Cu4 Sn5,0.0,107
5753,Sr3 Mo1 O6,2.2819000000000003,225
5754,Ce2 P2 Os4 C2,0.0,63
5755,Tb2 Ge6 Au1,0.0,38
5756,Sr2 U1 In1 O6,0.9955999999999996,225
5757,Ho2 In2 Pt4,0.0,194
5758,Mn3 Hg1 N1,0.0,221
5759,K3 Au1 F6,1.0075000000000003,2
5760,Sm1 Eu2 Ta1 O6,0.6623000000000001,225
5761,Y8 Mg12 Zn16,0.07089999999999996,194
5762,V4 Pb4 O16,0.0,14
5763,Y6 Mg4 Si6 O26,0.0,176
5764,U1 Cr4 H48 C14 N30 O22,2.3018,2
5765,Sr1 Li1 Si1,0.0,187
5766,Sr2 Eu1 Cu2 Bi2 O8,0.0,139
5767,S2 Fe2 Tl1,0.0,139
5768,Mg4 Al8 Si4 H4 O28,0.3365,15
5769,Mg1 H8 C6 S2 N2 O8,2.7186,2
5770,Li2 Zn8 Sn2 O16,0.0,186
5771,Li16 Mo12 O48,0.00649999999999995,62
5772,K2 Li2 W2 O8,3.5778999999999996,186
5773,K6 Mo6 C6 Se8 N4,0.08460000000000001,87
5774,Fe4 Te12 O32,0.0,206
5775,Eu4 W4 O20,0.0,14
5776,K4 Na4 Cu4 P16 H72 N16 O60,0.9875,62
5777,Cs4 C4 O8 F8,0.7713000000000001,62
5778,Ba1 Ho1 Fe4 O7,0.0,216
5779,Ba2 Y2 Co4 O11,0.0,47
5780,Ba2 Y1 Cu3 O6 F1,0.0,47
5781,Ba24 N16,0.10890000000000022,206
5782,As2 C4 S6 N2 F16,0.2706,2
5783,Ba4 C8 O18,2.4169,2
5784,Zr1 Zn1 Cu2,0.0,123
5785,Zr4 Cr4 Ni4,0.0,38
5786,Zn3 Co1 S4,0.0,115
5787,Zn2 Ni1 O3,1.2096999999999998,71
5788,U1 Co1 Cu1 Ge2,0.0,119
5789,Ti1 Nb1 N2,0.0,123
5790,U6 Ti2 S12,0.0,26
5791,Ti4 V1,0.0,69
5792,Tc3 Mo1,0.0,187
5793,Te6 Pd21,0.0,166
5794,Ta3 B4 W3,0.0,38
5795,Ta2 O5,1.6636,139
5796,Sm1 Co2 Cu3,0.0,191
5797,Sm3 Pu1,0.0,38
5798,Sm2 Mn2 Ga2 Fe13 C1,0.0,12
5799,Sm2 B14 H14 O34,0.12719999999999998,2
5800,Sc2 Cu2 O5,0.007800000000000029,6
5801,Sb10 O28,0.0,11
5802,Pr2 Si3 Ni1,0.0,187
5803,Nb1 Ru1,0.0,65
5804,Nb1 V1 C2,0.0,166
5805,Nb3 V3 Si2,0.0,155
5806,Na1 U2 Cl6,0.0,2
5807,Pr3 Gd3 Mn23,0.0,160
5808,Na2 Co2 H6 C6 O12,2.752,5
5809,Mo1 Pt3,0.0,25
5810,Mo1 Pt3,0.0,166
5811,Mo4 Pt4,0.0,38
5812,Mo2 Rh2 C1,0.0,166
5813,Mn2 Zn2 Se8,0.0,14
5814,Mn1 Zn3,0.0,12
5815,Mn1 Al1 Cu1 Pd1,0.0,216
5816,Mn4 Sb1 As1,0.0,99
5817,Mn3 Ga1,0.0,187
5818,Mn2 Cr2 Co2 O8,0.16280000000000028,74
5819,Mn2 Ni1 O3,0.6268000000000002,164
5820,Mg2 V6 O16,0.5901000000000001,5
5821,Mg7 Si4 O16,0.0,5
5822,Lu1 Ag1 S2,0.0,123
5823,Li1 Eu1 S2,0.0,123
5824,Li1 Yb1 Mo2 O8,0.0,82
5825,Mn20 O43,0.05090000000000017,2
5826,Li3 Cd1,0.0,166
5827,Li2 Nb2 W2 O12,2.7178,74
5828,Li9 Mn3 N4,0.0,12
5829,Li1 Co4 O5,0.0,87
5830,La1 Be1 Al3,0.0,119
5831,La4 Lu4 C12,0.0,199
5832,Li3 La1 Ga8,0.0,47
5833,La2 Ti3 Co1 O10,0.0,119
5834,La2 Ti3 Ni1 O10,2.0092,119
5835,La2 Fe1 As2 Ru1 O2,0.0,115
5836,La2 Co1 Si3,0.0,187
5837,K2 Lu2 Ta4 O14,2.1919999999999997,74
5838,K3 Fe4 O8,0.0663,115
5839,In1 Ni4,0.0,139
5840,Ho3 Mn3 Ga2 Ge1,0.0,174
5841,Hg12 S8 I2 Br6,0.0,18
5842,Gd1 U1 Al4,0.0,216
5843,Ga1 Fe4,0.0,69
5844,Fe1 Cu3,0.0,65
5845,Fe4 Te3 S1,0.0,38
5846,Dy1 Tm1 Mn4,0.0,216
5847,In6 H22 C12 O38,1.0263,1
5848,Cu1 Bi1 Se2,0.0,166
5849,Cu2 H2,0.0,164
5850,Co1 Re1,0.0,187
5851,K3 Zr4 Si12 H1 O44,0.0,1
5852,Cr8 Fe3 Cu1 S16,0.0,160
5853,Er4 Fe29 Si5,0.0,2
5854,Cr1 Ga3 Ni2 S8,0.0,8
5855,Cr4 Sb2 As2,0.0,26
5856,Cr2 Fe1 Se3 S1,0.0,8
5857,Cu4 Si4 H72 C28 S12 I4,3.0263,14
5858,Cr3 Ni1 Sn8,0.0,21
5859,Ce1 Mn5 Co7,0.0,44
5860,Cd3 Fe1 Se4,0.0,8
5861,Cd8 Co2 S10,0.10299999999999998,8
5862,Ce2 Mg5 Au1,0.0,166
5863,Ca1 Nb2 Ga2 Cu3 O12,0.0,12
5864,Be2 Co1 Si1,0.0,216
5865,Ca4 Mg4 V3 As1 O20,0.6757,1
5866,Ba1 La1 Co1 Sb1 O6,0.0,82
5867,Al2 Si6 O16,0.0,2
5868,Ba3 Sr1 C8 O16,3.3971,1
5869,Ba3 Fe10 Sn1 O20,1.9534999999999998,12
5870,Ba2 V1 P2 O10,0.29190000000000005,8
5871,Al3 Cr20 Si9,0.0,21
5872,Al1 Fe3,0.0,65
5873,Ba10 Re6 C1 O30,0.0,157
5874,Ag1 Sb1 S2,0.1059000000000001,123
5875,Al1 Si2 O6,0.0,21
5876,As14 H6 O31,2.2055,143
5877,Al8 Fe8 Cu8 Se24,0.0,9
5878,Ba16 La16 Co32 O68,0.0,14
5879,Ba4 Cu3 Mo1 O12,0.0,229
5880,Be12 Au1,0.0,139
5881,Be12 Ag1,0.0,139
5882,Mg13 Al14,0.0,229
5883,Si6 Sr10,0.0,140
5884,Mn4 S8,0.0,205
5885,Ni4 Np2,0.0,227
5886,Al8 Sb8,0.02210000000000001,205
5887,O1 Sm1,0.0,225
5888,C12 Sc8,0.014199999999999768,220
5889,Mn3 Sb1,0.0,221
5890,Ge4 U2,0.0,63
5891,B4 N16 F12 S16,1.9522,14
5892,O6 Ti2 Fe2,1.6510999999999996,63
5893,O2 Na6 S6 V2,2.0204,36
5894,Mg12 Mn8 Si12 O48,0.0,230
5895,Mg12 V8 Si12 O48,0.0,230
5896,Si2 Cr2 Dy1,0.0,139
5897,As8 In8,0.0,205
5898,Nd2 Mn2 Ge2,0.0,129
5899,V1 Ni2 Sn1,0.0,225
5900,S8 Ni2 In4,0.0,227
5901,B1 Pd3 Gd1,0.023800000000000487,221
5902,Ni1 In1,0.0,221
5903,Fe1 Co2 In1,0.0,225
5904,O16 Ca4 Yb8,0.0,62
5905,C2 Co4,0.0,58
5906,H3 C3 O6 Nd1,4.1895999999999995,160
5907,H8 O8,4.1497,92
5908,H36 C12 O6 Al1 S6 I3,3.3691,148
5909,H16 Li4 N4 O16 Se4,3.8634,33
5910,H16 N4 O4 S4 Mo2,2.1419,15
5911,O12 Si4 Cr2,0.5258999999999996,15
5912,O8 Y1 Mo3,1.2228000000000003,2
5913,O16 P4 W4,2.9297,62
5914,O24 Fe4 Se8,0.0,122
5915,O22 Co8 Ba4 Ho4,0.09779999999999989,51
5916,F60 As12 Te12,2.1838,15
5917,S8 Fe2 Mo6,0.0,2
5918,Ba1 Tb1 O3,0.0,221
5919,B1 Pd3 Pr1,0.0,221
5920,B1 Pd3 Tb1,0.0,221
5921,Ti8 I28 Cs4,0.19019999999999992,205
5922,Ca18 Mn8 Bi18,0.0,55
5923,O32 P8 Cr8,1.9681000000000002,61
5924,V2 H4 O4,1.4121000000000001,58
5925,O4 Pr4 S4,1.9171999999999998,14
5926,Cd2 Ce4 S8,0.0,122
5927,S4 Fe2 Cu2,0.0,122
5928,Ag2 In2 Se4,0.0,74
5929,Li31 Sb13 Zr2,0.018200000000000216,8
5930,F2 Nb2 O4,1.3247,15
5931,Ba1 Bi2 O5,0.0,123
5932,Ta4 Tl2 O12,0.0,74
5933,Cu5 U1,0.0,216
5934,Co1 Mn1 N12 H18 C6,0.13129999999999997,148
5935,Si2 Cr2 U1,0.0,139
5936,P2,0.0,51
5937,Li8 Ni4 O32 P8,0.0,4
5938,Li2 Ni2 P4 O14,0.5656,1
5939,Li2 O24 P6 Fe4,0.08079999999999998,15
5940,O28 P8 Cr4,0.0,14
5941,Fe6 V6 O24,2.0493,2
5942,Cd4 Rb4 S12 C12 N12,3.208,14
5943,Al8 N4 C3,0.1880999999999995,166
5944,Ce4 V4 O16,0.3341000000000003,14
5945,Zn3 As2 H16 O16,2.4565,12
5946,Ce2 Mn2 Sb2 O2,0.0004999999999997229,129
5947,O4 Na1 Cl1,4.4897,216
5948,O6 S2 Tl2 Cu1,0.14369999999999994,8
5949,O5 Te2 Gd1 Cl1,0.36430000000000007,123
5950,Cs2 C2 S2 O6 F6,5.5996,4
5951,Pr2 P2 H10 C2 O14,3.7298,2
5952,As4 C8 N4 O8 F24,4.6508,14
5953,V2 S4 Br4 N6,0.7769,2
5954,S10 N4 Cl2 O12,1.3105000000000002,2
5955,Sr3 Ge3 O9,3.0028,189
5956,Si2 Cr2 Ho1,0.0,139
5957,Nd2 P2 H10 C2 O14,3.8713,2
5958,Te16 As8 S4 O8 F48,1.2113,62
5959,Hg48 Cl24 O16,0.0,230
5960,U6 Ni3 O18,0.3891,150
5961,Nb1 Fe1 F6,0.0,148
5962,Se4 S16 N12 Cl20,2.3783,14
5963,K6 C6 S6 O18 F18,5.2646,4
5964,Mg2 F4,6.2865,2
5965,Ga8 S40 N40 Cl32,2.2969,62
5966,Rb4 Tb6 Al2 F32,0.0,194
5967,Mn4 Si4 Pb4 O18,0.8781000000000003,20
5968,Ho3 Mn3 Ga2 Si1,0.0,189
5969,B4 H32 C4 N4,6.158,62
5970,Rb3 Mn2 Cl7,0.837,139
5971,Cr10 Ge6,0.0,140
5972,Li56 Ni8 N32,0.0,218
5973,Si8 H72 C28 N8,4.4973,14
5974,K4 Os2 N2 Cl10,1.6187,36
5975,Sm2 Al4 Cl16,0.14829999999999988,13
5976,Cu2 Bi2,0.0,194
5977,Yb1 Tl1 Se2,0.0,166
5978,La2 Sm2 I8,0.0,15
5979,Sb4 P4 C12 S12 N12 Cl12 O4,3.3261,217
5980,Sm8 I16,0.0,61
5981,Ba2 Fe36 O54,0.049599999999999866,194
5982,Cu8 H96 C40 S32 N8,1.1785,61
5983,I1,0.0,69
5984,Li4 Al4 Si4 H8 O20,4.1764,33
5985,O2,0.0,69
5986,Zn4 C16 N24,4.7631,62
5987,Re4 H8 O18,1.9464000000000001,4
5988,Cu2 H4 O4,0.0,4
5989,H18 N6 O3,3.8792,152
5990,Be4 H8 O8,5.0360000000000005,19
5991,Fe4 H14 O13,1.8595,2
5992,Zr1 Mo2 O8,3.105,12
5993,V6 H12 O20,1.489,7
5994,Ge8 Te8,0.0,60
5995,V2 N4 Cl12 O4,1.3230000000000002,14
5996,Na12 V4 S12 O4,2.0084,62
5997,Ce8 Se12 O36,0.0,62
5998,Fe2 Cu2 S4,0.0,115
5999,Rb4 Au4 C8 S8 N8,2.4942,15
6000,H8 S2 N4 O4,5.2993,1
6001,K1 V2 P2 H4 O13,0.5438000000000001,2
6002,U1 In1 Ni2,0.0,225
6003,C16 Se16 Cl48 F48,2.8954,61
6004,Pd12 S54 N24,1.3486999999999998,148
6005,Te16 As8 S20 O8 F48,0.0,14
6006,Tl8 Fe2 C12 N12,2.7414,2
6007,Ru2 C8 I4 O8,2.0610999999999997,15
6008,Bi2 O3,0.9078000000000008,8
6009,Cu12 S6,0.0,1
6010,Li13 Mn6 As8,0.0,1
6011,Rb3 Bi3 F12,3.4703,1
6012,Co2 P2 S6,0.0,12
6013,Sr1 La11 Mg3 Ga9 O34,1.5107,1
6014,Sr1 La11 Mg3 Ga9 O34,1.4889999999999999,8
6015,Yb16 S24,1.4034999999999997,122
6016,Al16 O24,3.2993999999999994,1
6017,Zr19 O40,0.03730000000000011,1
6018,Ag6 Bi28 Br42,0.01429999999999998,6
6019,C2 O6 F6 S2 Rb2,5.7004,4
6020,Ba20 Mg6 Zr2 Ta12 O60,0.0,166
6021,In2 Ag2 Se4,0.0,1
6022,Na7 Al10 Si14 Ag3 O48,2.3087999999999997,1
6023,O6 Ba2 Pr2,0.0,167
6024,Na4 Li8 Al12 Si12 O48,2.955,99
6025,V9 P12 O48,1.1944,1
6026,Ge2 H20 N8 F12,4.8966,14
6027,Li20 Ge2 P4 O24,4.4506,105
6028,K2 Na2 H12 Pt2 C8 N8 O6,1.3944,9
6029,H8 C2 N10 Cl2,3.3781,9
6030,Li4 Cr8 P12 O48,0.0,1
6031,Li15 Mn21 O43,0.0,1
6032,Li6 Fe6 P16 O58,0.0,1
6033,Ba3 La3 Mn2 W3 O18,1.4413999999999998,160
6034,Ce8 Fe8 As8 O7 F1,0.0,22
6035,V10 O9,1.1357999999999997,1
6036,Sr1 La9 Mg2 Ga6 Fe2 O28,0.8176000000000005,1
6037,Ti7 Fe13 O30,0.6956999999999995,1
6038,U1 Ti22 Fe18 Pb1 O76,0.14290000000000003,1
6039,Ba4 P8 H8 O32,0.44580000000000003,56
6040,H32 C8 Se4 S8 Br8 N16,2.5463,14
6041,Sr4 H24 C8 S8 N8 O12,4.3178,14
6042,Cu4 H12 N12 O24,0.4393,14
6043,Mg16 Si8 H1 O32,0.0,1
6044,Cd4 Re8 H16 O40,0.19140000000000001,2