Index,Composition,bandgap,spgN
15355,Nb4 Zn4 Cu2 O16,0.0535000000000001,1
15356,Sr4 Y2 Mn4 Ga2 O14,0.0,46
15357,Ca6 Cr6 As8 O32,1.8288000000000002,14
15358,Zn2 Sn6 P8 O28,2.1513,14
15359,Sr4 Y2 Ti4 Al2 O14,0.0,46
15360,Zn2 Bi2 F10,3.7738,1
15361,Ca2 Ho2 Bi4 O12,0.0,6
15362,Li1 P1 Sr1,0.7964000000000002,187
15363,Li1 Se2 In1,0.8380999999999998,166
15364,Cs1 V2 S2 O1,0.0,123
15365,Eu1 Co1 O3,0.0,221
15366,La7 Sm1 Co6 Cu2 O24,0.0,35
15367,Ca28 Mg4 Ti4 Mn28 O80,0.0,1
15368,Sr2 Ca6 Mn5 Fe3 O24,0.0,38
15369,La4 Sm4 Ni8 O24,0.0,123
15370,Ba7 Sr1 Co1 Cu7 O24,0.0,160
15371,Sr4 Ca4 Mn7 Fe1 O24,0.0,8
15372,Ho2 Si4,0.0,74
15373,Yb1 Cu4 Ni1,0.0,216
15374,Nd2 O4,0.0,11
15375,Tm1 Fe2 O4,0.0,166
15376,H6 C2 Cl2,5.5625,36
15377,Dy2 Sn6,0.0,38
15378,Tm2 Sn6,0.0,38
15379,Sr3 Fe2 O5,0.8077999999999999,65
15380,Ta2 B4 Mo4,0.0,127
15381,Ba4 Al4,0.0,62
15382,Te4 Mo2 W2 Se2 S2,0.20579999999999998,156
15383,La4 Mg8,0.0,12
15384,Mg12 Sn4,0.0,225
15385,Y3 Mg15,0.0,155
15386,Mg2 Zn6,0.0,44
15387,Mg6 Zn6,0.0,5
15388,Mg4 Ga8,0.0,12
15389,Mg6 Ga6,0.0,8
15390,Mg6 Ga6,0.0,38
15391,Y3 Mg1,0.0,221
15392,Nb4 O6,0.15450000000000053,12
15393,Cd4 Se8,0.7103000000000002,205
15394,Al1 Ag1 O2,1.0782999999999996,160
15395,K2 Ce2 Fe4 O11,0.10210000000000008,1
15396,Mn16 H16 O32,0.25690000000000013,1
15397,K4 Na28 V28 Mo4 O80,0.06769999999999987,1
15398,K3 Na5 V1 Mo7 O24,0.0,8
15399,K4 Na28 V24 Mo8 O80,0.0,1
15400,Li9 Mn2 Co5 O16,0.7643,8
15401,Li9 Mn2 Co5 O16,0.7969999999999997,1
15402,Li9 Mn2 Co5 O16,0.7488999999999999,10
15403,Li9 Mn2 Co5 O16,0.7420999999999998,10
15404,V21 S24,0.0,152
15405,V8 Ag8 O24,1.7567000000000002,2
15406,V3 Cr3 P6 O24,0.0,146
15407,V2 Fe3 Co1 P6 O24,0.0,146
15408,V5 Ni1 P6 O24,0.0,146
15409,Ti1 Mn3 Fe2 P6 O24,0.0,146
15410,Tb16 Ce16 O64,0.0,198
15411,Sr3 Ca1 I8,2.9305,139
15412,Sb10 O14 F2,3.0247,12
15413,Sr2 Fe23 O38,0.04180000000000028,8
15414,Sr2 Fe23 O38,0.06389999999999985,1
15415,Na8 Mn16 O32,0.0,57
15416,Tb2 P2 O8,5.478199999999999,88
15417,As4 Rh8,0.0,62
15418,Pb12,0.0,135
15419,Ti3 Cu1 O8,0.0,115
15420,Nd1 Mn4 Co8,0.0,139
15421,Nb5 Pb1 Se8,0.0,12
15422,Mn4 Pb4 O12,0.045500000000000096,13
15423,K2 Rb1 Bi1 F6,4.1764,225
15424,Rb2 Y1 Cu1 I6,1.7520999999999998,225
15425,Tb1 Cs1 Rb2 Cl6,4.4296999999999995,225
15426,K2 Na1 Pr1 I6,3.1022000000000003,225
15427,K2 Na1 Bi1 I6,2.1103,225
15428,K2 Rb1 As1 Cl6,3.4023,225
15429,K2 Hg1 Au1 Br6,0.0,225
15430,K2 Lu1 Au1 Cl6,1.9013000000000002,225
15431,Cs3 Al1 Br6,3.3854,225
15432,K2 Tl1 Au1 Cl6,0.0,225
15433,Cs2 Hg1 As1 F6,0.0,225
15434,Tb1 Cs2 Au1 Cl6,2.0332000000000003,225
15435,Cs2 Au2 F6,0.0,221
15436,Cs1 Rb2 Y1 Cl6,4.4385,225
15437,Rb2 Sc1 Hg1 Cl6,0.0,225
15438,Cs2 Bi1 Au1 Cl6,0.6745000000000001,225
15439,Rb2 Hg1 Bi1 Br6,0.0,225
15440,Rb2 Al1 Cu1 F6,1.2553,225
15441,K1 Rb2 Al1 I6,1.7559,225
15442,Rb3 La1 Cl6,4.5189,225
15443,Na2 Au4 O8,0.0,131
15444,K1 Ni1 Te1 O6,0.0,149
15445,Ba2 Na2 Cu2 Br2 O4,0.0,99
15446,Sr8 Fe6 O20,0.23550000000000004,2
15447,O8 Si2 Zr2,4.0306,88
15448,Na2 Cd2 In8 P12 O48,0.0,2
15449,Li5 Co3 O8,0.3837999999999999,10
15450,Li6 Co4 O10,0.0,12
15451,Li4 Mn1 Co3 O8,0.0,12
15452,Li6 Mn2 Co2 O10,0.0,2
15453,Li6 Co4 O10,0.4034,2
15454,Li5 Mn1 Co2 O8,0.0,8
15455,Li6 Co4 O10,0.0,12
15456,Li5 Mn1 Co2 O8,0.0,8
15457,Li7 Co5 O12,0.14789999999999992,12
15458,Li6 Mn3 Co1 O10,0.8393999999999999,8
15459,Li8 Co6 O14,0.28459999999999974,2
15460,Li4 Mn3 Co1 O8,0.0,166
15461,Li8 Mn2 Co4 O14,0.6598000000000002,2
15462,Li8 Mn2 Co4 O14,0.7446000000000002,2
15463,Li8 Mn2 Co4 O14,0.20219999999999994,12
15464,Li7 Mn2 Co3 O12,0.7254,1
15465,Li7 Mn2 Co3 O12,0.46419999999999995,1
15466,Li7 Mn4 Co1 O12,0.14509999999999978,1
15467,Li7 Mn4 Co1 O12,0.0,1
15468,Li7 Mn4 Co1 O12,0.0,8
15469,Li9 Mn2 Co5 O16,0.8022999999999998,2
15470,Li9 Mn2 Co5 O16,0.3919999999999999,2
15471,Li9 Mn2 Co5 O16,0.8096999999999999,2
15472,Li9 Mn2 Co5 O16,0.5945,2
15473,Li9 Mn2 Co5 O16,0.6403999999999996,2
15474,Li9 Mn2 Co5 O16,0.7088000000000001,2
15475,Li9 Mn2 Co5 O16,0.923,2
15476,Li9 Mn2 Co5 O16,0.5859000000000001,2
15477,Li9 Mn2 Co5 O16,0.6462999999999997,2
15478,Li9 Mn2 Co5 O16,0.7259000000000002,1
15479,Li9 Mn2 Co5 O16,0.6590999999999996,2
15480,Li9 Mn2 Co5 O16,0.7145999999999999,2
15481,Li9 Mn2 Co5 O16,0.8569,2
15482,Li9 Mn2 Co5 O16,0.5305,2
15483,Li9 Mn2 Co5 O16,0.8341000000000003,2
15484,Li9 Mn2 Co5 O16,0.8498000000000001,2
15485,Li9 Mn2 Co5 O16,0.37280000000000024,2
15486,Li9 Mn2 Co5 O16,0.8251,1
15487,Li9 Mn2 Co5 O16,0.7292000000000001,5
15488,Li9 Mn2 Co5 O16,0.43089999999999984,5
15489,Li9 Mn2 Co5 O16,0.6818,2
15490,Li9 Mn2 Co5 O16,0.7206999999999999,1
15491,Li9 Mn2 Co5 O16,0.8299000000000003,1
15492,Li9 Mn2 Co5 O16,0.6495000000000002,1
15493,Li9 Mn2 Co5 O16,0.8881000000000001,1
15494,Li9 Mn2 Co5 O16,0.7660999999999998,1
15495,Li9 Mn2 Co5 O16,0.8355999999999999,1
15496,Li9 Mn2 Co5 O16,0.4119999999999999,1
15497,Li9 Mn2 Co5 O16,0.42969999999999997,1
15498,Li9 Mn2 Co5 O16,0.8739000000000003,1
15499,Li9 Mn2 Co5 O16,0.7213000000000003,1
15500,Li9 Mn2 Co5 O16,0.7466000000000004,1
15501,Li9 Mn2 Co5 O16,0.8348,1
15502,Li9 Mn2 Co5 O16,0.8477999999999999,1
15503,Li9 Mn2 Co5 O16,0.6324000000000001,1
15504,Li9 Mn2 Co5 O16,0.5011999999999999,1
15505,Li9 Mn2 Co5 O16,0.47350000000000003,1
15506,Li9 Mn2 Co5 O16,0.8378000000000001,1
15507,Li9 Mn2 Co5 O16,0.8195000000000001,1
15508,Li9 Mn2 Co5 O16,0.673,1
15509,Li9 Mn2 Co5 O16,0.7788999999999997,1
15510,Li9 Mn2 Co5 O16,0.8418999999999999,1
15511,Li9 Mn2 Co5 O16,0.6991,1
15512,Li9 Mn2 Co5 O16,0.6466999999999996,1
15513,Li9 Mn2 Co5 O16,0.7928000000000002,1
15514,Li9 Mn2 Co5 O16,0.6440999999999999,1
15515,Li9 Mn2 Co5 O16,0.5902999999999996,1
15516,Li9 Mn2 Co5 O16,0.6993,1
15517,Li9 Mn2 Co5 O16,0.7907000000000002,1
15518,Li9 Mn2 Co5 O16,0.6259999999999999,1
15519,Li9 Mn2 Co5 O16,0.6549,1
15520,Li9 Mn2 Co5 O16,0.8022999999999998,1
15521,Li9 Mn2 Co5 O16,0.7873000000000001,1
15522,Li9 Mn2 Co5 O16,0.6151,1
15523,Na4 Li2 Cu2 P4 O14,2.2969999999999997,5
15524,Mn1 V2 Fe3 P6 O24,0.0,146
15525,Mn6 Nb2 O16,0.44789999999999974,9
15526,Mn3 Fe2 Sb1 P6 O24,0.0,146
15527,Mn2 Nb1 Ni3 P6 O24,0.0,146
15528,Li1 Ti1 V2 O6,1.0217999999999998,1
15529,Li3 Mn6 P6 O24,0.0,1
15530,Li1 Ho1 O2,4.5038,166
15531,Li3 Mn6 B6 O18,0.08250000000000002,1
15532,Li6 Fe6 F18,2.9936000000000003,2
15533,Li2 Fe4 O4 F6,1.8616000000000001,15
15534,Li12 Cu12 P12 O48,0.2561,33
15535,Li1 Cr2 O4,0.4636,10
15536,Li2 Cr2 P4 O14,3.0142,2
15537,Li8 Ni1 O4 F2,2.8899999999999997,2
15538,Li8 Co5 O10,0.1726000000000001,1
15539,Li8 Fe1 O4 F2,3.2065,2
15540,Li14 Nb2 S12,2.3373999999999997,7
15541,Li8 Co5 O10,0.2459,1
15542,Li7 Fe3 O10,0.0,2
15543,Li20 Ti4 Mn12 O32,0.19530000000000003,1
15544,Li8 V10 Cr8 O36,1.3104,55
15545,Li4 Ti1 Cu3 P4 O16,0.0,6
15546,Li4 Mn2 Fe3 Sn1 P6 O24,1.9415999999999998,1
15547,Li4 Cr1 Fe3 Cu2 P6 O24,0.3369,1
15548,Li6 Mn2 P2 C2 O14,3.6992000000000003,2
15549,Li3 Fe2 O3 F3,0.8167,8
15550,Li12 Cr4 P4 C4 O28,1.8425000000000002,1
15551,Li12 Cr4 P4 C4 O28,1.8348999999999998,1
15552,Li6 Mn8 P16 O56,0.007199999999999984,1
15553,Li2 Ti1 Fe1 O4,0.8112999999999997,139
15554,Li3 Mn3 Fe1 O8,0.20290000000000008,2
15555,Li16 Mn8 P16 O56,3.7150999999999996,143
15556,Li4 Hf4 O10,4.339700000000001,15
15557,Li2 Fe1 Co1 O4,0.0,119
15558,Li11 V6 O5 F19,0.5962000000000001,1
15559,Li8 Fe12 Ni4 O32,0.0,1
15560,K8 Li10 Cr4 O16,0.9598,1
15561,La6 Mn2 O14,0.0,1
15562,Fe18 O18 F18,0.0,6
15563,Hf16 Zr16 O64,3.2918,198
15564,Fe10 O9 F11,0.9762999999999997,1
15565,Cu1 Ag2 O2,0.0,71
15566,Fe12 O12 F12,0.0,6
15567,Fe12 O12 F12,0.0,6
15568,Co2 Pb2 O6,0.0,148
15569,Co6 O5 F7,0.0,5
15570,Bi4 C4 O12,1.5052000000000003,2
15571,Ba2 La4 Cl16,3.8468999999999998,82
15572,Sr4 Cd2 W2 O12,3.4175999999999997,25
15573,Mn4 Zn8 Si4 O24,0.7368999999999999,14
15574,La4 Fe4 O12,1.2408000000000001,4
15575,H12 C4 O12,3.4039,14
15576,Cu3 Ni1 Hg1 Se4,0.0,215
15577,H48 C12 N24 O12,4.2875,92
15578,Ac6 Tm2,0.0,194
15579,Ac1 Mg1 O3,0.0,221
15580,Cu1 Ge1 U1,0.0,187
15581,Ca3 Eu1,0.0,221
15582,Cr6 Pt2,0.0,194
15583,Hf2 Co6,0.0,194
15584,Ir1 Pt3,0.0,221
15585,Li2 Ce1 Ga1,0.0,225
15586,La1 Al1 Ag2,0.0,225
15587,La1 Sm1 Ir2,0.0,225
15588,K3 Tl1,0.0,139
15589,Li1 Er2 Au1,0.0,225
15590,Mg16 Al12 Bi1,0.0,217
15591,Mo3 Pt1,0.0,221
15592,Na6 Zn2,0.0,194
15593,Np1 Al1 O3,0.016299999999999315,221
15594,Pr2 Ir1 Rh1,0.0,225
15595,Sb1 Au3,0.0,139
15596,Sr1 F3,0.0,139
15597,Zn1 Co3,0.0,139
15598,Zr2 Cu6,0.0,194
15599,Ti2 V8 Si6,0.0,140
15600,U4 Al4 Au8,0.0,62
15601,Rb2 Li2 C8 N12,4.4878,140
15602,Nb8 Ni16,0.0,194
15603,Dy2 Mn3 Cu9 P7,0.0,174
15604,Nd5 Cu5 O13,0.0,10
15605,V4 Mo8 S16,0.0,9
15606,Al4 H12 O12,5.759300000000001,62
15607,Hg6 Cl4 O20,0.0,15
15608,Ba4 C8 O16,3.2489,2
15609,Sc4 H16 S8 O40,0.009200000000000097,14
15610,Al8 B56 Pd120,0.018499999999999517,230
15611,Na4 S8 N4 O16 F8,5.5121,14
15612,Ca12 Si12 O38,0.7349000000000001,15
15613,Rb4 Sc4 P8 O32,0.012699999999999989,14
15614,Si40,1.1294999999999997,191
15615,Ca4 Si4 B4 O20,0.3998999999999999,14
15616,Ca6 Si6 O19,0.5643,2
15617,Mo6 H24 C6 N12 O24,3.0917,13
15618,Y4 Co28 Cu6,0.0,194
15619,Ca12 Si12 O38,0.5791,13
15620,Na2 U2 Fe1 H8 C12 O28,0.18569999999999975,2
15621,Cu28 P4 Se24,0.0530999999999997,198
15622,Ca6 Si6 O19,0.7324000000000002,2
15623,Ho6 Si26 Os8,0.0,223
15624,Al4 Si4 H44 C12 O4,4.96,15
15625,Zn4 P56 Pb4,1.2195000000000005,62
15626,K2 Na4 Ca5 Si12 O34,0.36260000000000003,8
15627,La4 B20 I4 O44,1.2459000000000002,14
15628,As2 I4 F12,0.0,12
15629,K3 Yb1 F6,0.0,225
15630,Ce1 B2 Pd2 C1,0.0,139
15631,Zn1 Si1 Ni2,0.0,225
15632,Yb1 Ru3 C1,0.0,221
15633,Li1 Ta1 Se2,0.0,164
15634,Zn4 Cu8 B8 O24,0.32159999999999966,14
15635,Yb2 Nb10 Ag4 O30,0.0,127
15636,Yb4 Tl4 S8 O36,0.7381000000000002,14
15637,Th6 Si24 Ru8,0.0,64
15638,Tb1 Ga4 Co8,0.0,139
15639,Sr2 Gd1 Cu2 Hg1 O7,0.0,123
15640,Rb16 U8 O24 F32,0.4525999999999999,61
15641,La1 Ti1 Te1 O6,0.0,143
15642,La6 Be2 Ga2 S14,2.0854999999999997,173
15643,K4 Nd8 Br20,0.4325000000000001,14
15644,Mn24 Zn12 Si4 As8 O80,0.0,64
15645,Ho4 Fe34 H6,0.0,194
15646,Er4 Fe34 H6,0.0,194
15647,Dy4 Fe34 H6,0.0,194
15648,Cs2 Yb2 Mo4 O16,0.0,13
15649,Cs2 Er2 Mo4 O16,2.9585,15
15650,Cr1 Fe1 Co1 Si1,0.0,216
15651,Ba3 Co8 Sn3 O20,0.15050000000000008,12
15652,Al8 Cr4 Si3,0.0,2
15653,Zr1 Sc1 V1 Ni3,0.0,160
15654,Zr4 Al4 Cr4,0.0,38
15655,Zn4 Co1 Se5,0.11919999999999997,8
15656,Yb4 Al4 Ni4,0.0,38
15657,Zn1 Fe1 As4 Pb4 O18,0.0,2
15658,Y2 Ni2 Ge2,0.0,12
15659,Y2 Co5 Ni5,0.0,47
15660,Y2 Fe17 C1 N1,0.0,2
15661,U1 Co1 Ni1 Ge2,0.0,119
15662,V3 Ni1 O6,0.0,146
15663,Ti1 Nb1,0.0,65
15664,Tm4 Cd1 Se7,0.9491999999999998,8
15665,Tl1 Sb1 Pb1 S3,0.5863999999999998,1
15666,Ti1 Al1 Co2,0.0,123
15667,Ti2 Cr1 Te4,0.0,8
15668,Sr5 Fe4 Co1 O10,0.0,123
15669,Sr8 Pr4 Cu9 Hg3 O24,0.0,12
15670,Sr4 Ca1 Y1 Fe1 Cu4 Pb1 O14,0.0,119
15671,Re3 Hg1 O9,0.0,183
15672,Sc6 Ga10 Ni2,0.0,5
15673,Si5 Ge1 W10,0.0,97
15674,Pd1 Rh1,0.0,166
15675,Ni3 Bi2 S2,0.0,25
15676,Ni2 P2 Se3 S3,0.0,1
15677,Nd2 Ge3,0.0,44
15678,Nb6 Si1 Sn1,0.0,200
15679,Nb2 Ag2 O6,1.0328,113
15680,Nb6 Ag1 Se8,0.0,147
15681,Nd2 Co5 Ni5,0.0,47
15682,Nb2 Al2 Fe8,0.0,164
15683,Nb3 Ir1 S8,0.0,12
15684,Na5 Ni1 C1 O5,1.5992,25
15685,Na2 Th1 Ti3 O9,1.8987000000000003,164
15686,Na2 Tb1 O3,0.0,71
15687,Mn1 Ni3 O4,0.6545000000000005,47
15688,Mn2 Cu1 Sb2 Pd1,0.0,160
15689,Mg1 Ge1 P2,0.20210000000000017,115
15690,Mg12 Si4 O20 F4,0.7525000000000002,33
15691,Mg4 Cu6 Ge2,0.0,38
15692,Li1 Ho1 S2,0.31190000000000007,123
15693,Li1 Nd1 S2,0.24759999999999982,123
15694,Li2 Al1 Co1 O4,0.8483999999999998,12
15695,Li2 V1 Fe1 S4,0.0,164
15696,Li1 Ni5 O10,0.0,2
15697,La2 Ag10,0.0,164
15698,La4 Ti2 Cu2 O12,0.0,14
15699,La2 Co5 Ni5,0.0,47
15700,La2 H12 S6 N6 O18,4.4462,173
15701,Hg1 Au3,0.0,187
15702,Ge1 Te2 Pb1,0.8598999999999997,123
15703,Hf1 Nb2 V1 C4,0.0,160
15704,Ga4 Bi3 As1,0.17790000000000017,160
15705,Fe1 Ir1,0.0,166
15706,Dy2 Fe17 C1 N1,0.0,2
15707,In8 Cu8 Ni8 Se24,0.0,9
15708,Ce1 Pr1 Fe4,0.0,216
15709,Ce1 Si1 B1 Ir3,0.0,187
15710,Ce2 Ge2 Pd2,0.0,12
15711,Ce2 Fe2 Cu2,0.0,74
15712,Ce2 Al3 Sn1,0.0,25
15713,Ca2 Y2 Nb4 O14,0.0,74
15714,Be4 Si1 Ni1,0.0,216
15715,Be1 Co2 Si1,0.0,123
15716,Ca2 La4 Ti5 O18,2.3104000000000005,166
15717,Ca4 Mn2 Al4 Si6 O26,0.0,11
15718,Ba4 Na1 Ir3 O12,0.0,229
15719,Ba2 Zr1 W1 O6,0.0,225
15720,Ba2 Nd2 Fe1 Co3 O12,0.0,38
15721,Ba2 La4 Ti5 O18,2.3691999999999993,146
15722,Er2 Tl2 Cu2,0.0,12
15723,Ba2 Fe4 P8 H8 O34,1.203,4
15724,Cs1 Co1 Cu1 S2,0.0,119
15725,Ag1 Sn1 S2,0.0,123
15726,Ca6 Mg2 Cu22 O30,0.0,6
15727,Ag1 W2 Br6 O2,0.0,8
15728,Ag6 P6 O19,0.43080000000000007,146
15729,As8 Se12 S12 N16 F48,1.5476,14
15730,Cs1 In1 Cu6 O8,0.0,225
15731,Pr32 Mg16 Se64,1.0171000000000001,227
15732,Li9 Mn2 Co5 O16,0.37349999999999994,2
15733,Ge4 Sm2,0.0,141
15734,O3 Tm2,4.146,164
15735,Fe2,0.0,194
15736,O6 Sr2 Dy1 Re1,0.0,225
15737,As2 Sr4,0.0,139
15738,O12 K4,0.6216999999999999,140
15739,O2 Mn2 Sb2 Nd2,0.0,129
15740,O12 Cr4 Ba4,0.0,194
15741,O4 Fe2 Er1,0.0,166
15742,Ni3 Pb2 Se2,0.0,166
15743,Mn4 Ge2,0.0,194
15744,Mn4 Ge4 Ho4,0.019999999999999574,62
15745,Sr8 Ca1 Cu4 Re3 O24,0.0,221
15746,C4 N4 S4 Eu2,0.0,15
15747,Mn1 Cu2 In1,0.0,225
15748,U4 Ni4 Sn2,0.0,127
15749,S32 In40,0.0,205
15750,H4 C4 O8 Rb4,4.4247,57
15751,H24 C8 O24 Cd4,4.5222999999999995,14
15752,H40 N4 O28 Zn2 Se4,3.637,14
15753,O4 Ca2 Fe2,0.04020000000000046,113
15754,Li1 O2 Mn1,0.0,166
15755,H24 C8 O24 Mn4,3.4977,14
15756,O32 V16,0.17720000000000002,139
15757,Bi8 P12 O48,0.0040999999999999925,14
15758,Bi2 P4 O14,0.0,2
15759,Li4 Sn4 P16 O48,0.0,134
15760,Cr1 I2,0.01529999999999987,12
15761,H72 B80 Rb8,4.4008,33
15762,H8 N8 S24,3.0889,13
15763,As2 Ba4,0.0,139
15764,Fe3 Se4,0.0,12
15765,P2 Rh3,0.0,115
15766,Zr6 I12,0.07629999999999981,148
15767,O24 P16 Se4,3.1346,14
15768,H6 O4 Cs2,4.7128,141
15769,Co4 P8 O28,0.017699999999999994,2
15770,O28 P8 Co4,0.025799999999999823,14
15771,Li4 Co8 P12 O48,0.0,14
15772,Lu10 O27 Ti6,2.4953999999999996,8
15773,Ba1 La1 Mg1 O6 Ta1,2.9440999999999997,216
15774,Tb2 H2 O4,4.7376000000000005,59
15775,Ga41 N11 O45,0.4615999999999998,8
15776,Nd12 O37 Zr12,0.00020000000000042206,1
15777,Si2 Cr2 Th1,0.0,139
15778,O14 P4 Cr3,1.1186,2
15779,Li4 Fe2 P4 O16,0.0,6
15780,Ca1 Mn2 As2,0.0,164
15781,Li2 Si4 Cu5 O14,0.21860000000000035,2
15782,La2 H12 Cl6 O18,2.5974000000000004,190
15783,K1 Cr1 F3,0.0,221
15784,Ga8 S20 N20 Cl28,2.5008999999999997,14
15785,V1 Mo2 S4,0.0,12
15786,H36 C12 N12 O8,4.8956,19
15787,Hg2 Sb8 C4 O4 F44,4.298,14
15788,K2 Co1 F4,0.0,139
15789,Sb8 Se16 S8 N16 F48,1.5549,14
15790,H40 C12 S12 N4,1.7681000000000002,13
15791,Y4 Zr4 O14,2.7008,227
15792,C4 S4 Cl4 O12 F12,4.6094,14
15793,Sr4 Co4 O12,0.0,1
15794,Cu24 W8 O48,0.09830000000000005,205
15795,Rb4 Mo4 H8 C8 O30,2.7138,14
15796,La2 Fe10 H14,0.0,186
15797,Yb1 Sb1 Pd1,0.0,216
15798,Li1 Mg1 Sb1 Pt1,0.0,216
15799,K12 U4 H24 C20 S4 N4 O52,1.6804999999999999,14
15800,Cu8 W4 O16,1.3371000000000004,1
15801,Mo2 H8 O10,2.3239,7
15802,Zn4 H8 O8,2.6221,19
15803,Mo2 H4 O8,2.5418,1
15804,V6 H4 O13,0.6696,8
15805,H8 W4 O20,2.4402000000000004,14
15806,U2 H4 O8,1.8953000000000002,36
15807,V4 H4 O12,0.6363,1
15808,V6 H12 O20,1.5975000000000001,7
15809,V6 H12 O20,1.5017,1
15810,Cd1 Cl2,2.9972,1
15811,Eu1 Cu1,0.0,221
15812,Rb8,0.0,1
15813,Ti16 Ni8 H8,0.0,227
15814,Te16 As16 Se64 F96,1.4334,60
15815,Co6 P4 O16,2.4802,14
15816,Er90 Si54 C18,0.0,164
15817,Nd12 Cu12 O30,0.0,15
15818,Sn7 S2 Br10,2.0140000000000002,1
15819,Sr12 Bi4 O22,1.0428000000000002,59
15820,Ti1 Cu3 O4,0.0,8
15821,Sr8 Nb4 O18,3.25,1
15822,Cu28 P4 Se24,0.02909999999999968,1
15823,K6 Nd6 I20,0.10299999999999976,4
15824,Na6 Mg1 Al4 Si13 O36,5.029300000000001,5
15825,Li2 Ti2 P10 O30,0.1854,7
15826,Cu18 S11,0.0,1
15827,Fe2 Mo12 Se16,0.0,2
15828,Mn2 C2 O6,3.4490000000000003,9
15829,Li2 Fe1 P8 O24,0.0013999999999999568,1
15830,Rb2 Ni2 W2 O6 F6,2.2474,15
15831,Li4 Fe4 P8 O28,2.4343,14
15832,Li8 Fe4 P8 O32,0.0,4
15833,Na4 Li4 H16 C8 O20,4.616300000000001,2
15834,Cs2 Mn2 Mo2 O6 F6,0.018799999999999928,15
15835,Yb8 Cu8 Mo16 O64,0.437,61
15836,Sr16 Fe6 Co2 Mo8 O45,0.5607000000000002,1
15837,Na2 Mg2 P2 H24 O22,0.31800000000000006,131
15838,Fe12 P16 O60,0.04079999999999999,33
15839,Yb6 H20 N8 O49,0.0,2
15840,Ca2 P4 H8 O16,5.0703,2
15841,Na4 H32 Se4 N4 O24,3.8639,19
15842,Np4,0.0,129
15843,K6 H4 S4 N2 O14,4.735799999999999,2
15844,K4 Fe4 P4 O16,3.4089,62
15845,Ba8 Na8 O12,1.9318,96
15846,Ce4 Sm4 O14,2.0294999999999996,227
15847,Sc4 Tl4 O12,0.9279999999999995,14
15848,Al10 O15,4.0173000000000005,1
15849,Li1 Cu1 P2 O6,1.6143999999999998,21
15850,Li2 Cu7 F16,0.0,2
15851,Bi4 O4 F12,1.6745999999999999,14
15852,Ti2 Cu2 Ge2,0.0,8
15853,Ba2 La2 Cl10,3.4181999999999997,11
15854,Bi4 B4 O14,0.5085999999999999,2
15855,Li2 Sn2 P4 O14,0.0,4
15856,Er4 In4 O12,2.5532,62
15857,Nd1 O1,0.0,225
15858,Zr2 Bi2 O8,0.0,88
15859,Sr3 Ca1 I8,2.9311000000000003,1
15860,Na1 Cu2 O3,0.0,65
15861,Li1 Bi1 B2 O5,3.2969,5
15862,Na4 O2,1.0915,12
15863,Pr2 Nd2 O4,0.0,141
15864,Tm4 Ti2 O10,2.9529000000000005,15
15865,Li2 Nb4 O11,2.5366,12
15866,Bi4 B4 O14,0.2197,2
15867,K12 Y2 O8,0.0,186
15868,Tm4 As4 O16,3.5775000000000006,14
15869,Tb4 Tm4 O12,4.568899999999999,62
15870,Li6 Be2 P2 C2 O14,5.242999999999999,11
15871,K2 Sb2 P2 C2 O14,0.0,4
15872,Sb10 O14 F2,3.078,1
15873,Li6 Ti4 P6 O24,0.0,12
15874,Li4 Cu2 P2 O8,1.2572,12
15875,Li2 Sn2 P8 O24,0.0,12
15876,Li2 Sn2 P8 O24,0.0,4
15877,Li4 Cu2 Si4 O12,0.08719999999999972,1
15878,Li6 Ti6 P8 O32,0.0,4
15879,Li4 Cu4 P4 O16,0.0,2
15880,Li6 Ti2 P4 O16,0.21030000000000015,1
15881,Li8 Cu4 Si4 O16,0.0,14
15882,Li4 Cu4 P4 O16,0.28949999999999987,2
15883,Li3 Sb1 P2 O8,2.9071,1
15884,H32 C8 Br4 N4,4.6619,15
15885,Li24 Ag8 F32,2.6452,1
15886,Li8 Cu8 P8 O32,0.28980000000000006,14
15887,Li2 Bi3 P9 O28,3.9590999999999994,2
15888,Li2 Cr1 Si7 O16,1.8155999999999999,1
15889,Li6 V2 P4 O16,1.8612999999999997,11
15890,Li8 Cr8 P8 O32,2.2924999999999995,61
15891,Li4 Cr4 P4 O16,1.9259,62
15892,Li8 Cr8 P8 O36,2.3611,62
15893,Li4 Mn2 Fe3 Co3 O16,0.0,1
15894,Li12 Mn12 P12 O48,3.4363,33
15895,Li24 Fe24 P24 O96,0.0,170
15896,Li8 Mn8 Si16 O48,1.1997999999999998,61
15897,Li4 Co1 P2 O8,2.8352,2
15898,Li6 Co6 P6 O24,2.4138,1
15899,Li2 Mn1 Co3 O8,0.0,166
15900,Li4 Cu4 P12 O36,0.10249999999999981,62
15901,Li4 Fe4 Co4 O16,0.0,95
15902,Mn2 Cr3 Co3 O16,0.0,1
15903,Li12 Co12 P12 O48,3.0709999999999997,14
15904,Rb4 Ho4 H4 S8 O36,0.2238,14
15905,Li4 Co4 P4 O16,2.5854999999999997,2
15906,Li8 Fe4 C4 O16,2.5659,14
15907,Li8 Cu8 P8 O32,0.3173999999999997,61
15908,Li6 Co3 Si3 O12,2.6016000000000004,152
15909,Li12 Cr6 Si12 O36,1.5998,31
15910,Li32 Ti8 O32,3.8455999999999997,7
15911,Li4 Sb4 P16 O48,3.9234,14
15912,Li1 V5 O10,1.2626000000000004,1
15913,Li10 Ni18 O32,0.0,2
15914,Li4 Cr6 O12,0.5035000000000001,70
15915,Na8 Mn8 H24 O24,1.6517,106
15916,Na3 Li4 Mn5 O9,0.0,1
15917,Li4 Ti3 Fe3 O12,0.06979999999999986,2
15918,Li8 Mn8 P8 O36,0.7149000000000001,62
15919,Li6 V1 Ni3 P6 O24,0.0,1
15920,Li4 V4 F20,2.0682,14
15921,Li8 Cr2 P12 H16 O44,3.1935,14
15922,Li12 Fe3 O3 F15,1.5509999999999997,8
15923,Mn12 O10 F14,0.02499999999999991,1
15924,Fe12 O12 F12,0.41949999999999976,6
15925,Li4 Ti3 Mn2 Cu3 O16,0.0,1
15926,Li4 Fe3 Co5 O16,0.0,10
15927,Fe8 O10 F6,0.0,1
15928,Li2 Cr3 Co3 O12,0.2259,2
15929,Li4 Mn2 Cr3 Co3 O16,0.0,1
15930,Li4 Fe3 Co2 Cu3 O16,0.0,1
15931,Mn2 V1 Ni3 P6 O24,0.0,146
15932,Li2 Mn4 B4 O12,0.5031000000000001,9
15933,Fe12 O12 F12,0.0,6
15934,Li2 Co2 Si2 O8,1.3956,4
15935,Li8 Co8 C8 O28,2.1647,14
15936,Fe4 O5 F3,0.0,44
15937,Li2 P6 W4 O24,0.0,167
15938,Li4 V12 P12 O44,2.4286000000000003,14
15939,Li8 V4 P16 O48,2.3674,14
15940,Li12 Fe6 Si12 O36,2.8795,31
15941,Li6 Nb1 Cr3 P6 O24,0.2645999999999997,1
15942,Li12 V4 P8 O32,2.2363,1
15943,Li3 V2 Fe2 O8,0.9148000000000001,2
15944,Zn2 Ni3 O5,1.5657999999999994,12
15945,Li2 Mn4 P10 O30,4.0219,9
15946,Li3 Mn2 P2 O8 F3,0.0,42
15947,Li4 Nb12 Ni2 O36,1.2195,1
15948,Li4 Mn12 O4 F32,0.25329999999999997,7
15949,Co4 O2 F6,0.0,74
15950,Li6 Mn5 Ni3 O16,0.25790000000000024,8
15951,Co6 O4 F8,0.4456000000000001,5
15952,Co6 O5 F7,0.08719999999999994,1
15953,Li1 V3 O4 F8,1.8348,1
15954,Cr4 O2 F4,2.2239,141
15955,Li4 Co7 O3 F13,0.8342,1
15956,Li4 Mn6 O2 F12,2.4173999999999998,2
15957,Li4 Mn8 O2 F16,2.0338,2
15958,Li9 V6 O12 F6,0.0,12
15959,K8 Li8 Ni4 O16,0.40630000000000005,14
15960,Li9 V6 O12 F6,0.0,2