Index,Composition,bandgap,spgN
24477,Na12 P4 H48 C4 O44,4.3697,14
24478,Mg8 O8,3.8937,166
24479,Bi4,0.06469999999999931,11
24480,Ba2 O20,0.0,124
24481,Ac1 La1,0.0,187
24482,Ac1 Y3,0.0,139
24483,Be3 Cu1,0.0,225
24484,Ca1 Sb1 Pd2,0.0,225
24485,Ga1 Hg3,0.0,225
24486,Gd6 Cd2,0.0,194
24487,Hg6 Pb2,0.0,194
24488,In1 Ga3,0.0,221
24489,In2 Rh6,0.0,194
24490,La1 Zn2 Ag1,0.0,225
24491,K2 Sn6,0.0,194
24492,Mg5 Sc1,0.0,155
24493,Mn3 Re1,0.0,225
24494,Np1 Co3,0.0,221
24495,Nd3 Eu1,0.0,221
24496,Sr1 Ta1 O3,0.0,221
24497,Sr2 Pd1 Pt1,0.0,225
24498,Sr1 La1 Pt2,0.0,225
24499,Tb6 Th2,0.0,194
24500,Yb1 Mg3,0.0,139
24501,Bi8 O12,1.4874,186
24502,Tb4 Mo4 C8,0.0,62
24503,Pr4 Cu4 O10,0.0,55
24504,Rb4 H4 S4 O8,3.3114000000000003,12
24505,Th4 Fe2 Se10,0.0,15
24506,Cr10 Si6 B2,0.0,193
24507,Sr4 B4 O12,0.458,62
24508,As2 H12 N2 O8,3.9775,122
24509,Mg7 Nb1 H16,0.0,225
24510,Zr16 Co8,0.0,227
24511,Bi3 B6 O14,0.0,1
24512,Dy6 Al2 Fe2 S14,0.0,4
24513,Tb4 C4 O16,0.7511,19
24514,Zr18 B2 W8,0.0,194
24515,Ce6 Al2 Zn2 S14,0.016600000000000392,4
24516,Bi2 W4 Br16 O4,1.6006,2
24517,Na16 Sc8 Si8 O40,0.0,29
24518,Ba8 B20 Cl4 O38,0.3689999999999999,34
24519,B20 Pb8 Cl4 O38,0.34320000000000017,34
24520,K8 Si16 B8 P8 H216 C72,2.7808,14
24521,Hf4 Si32 H224 C64 N16,4.1244,14
24522,U4 B16 Os16,0.0,142
24523,U8 Ti4 S20,0.0,62
24524,B12 Pb6 O22 F4,3.0374,4
24525,Cu4 H72 C24 Se8 Cl16,0.6197,14
24526,Sr8 Ga4 P8 O32 F8,0.09189999999999987,14
24527,Li8 P4 H16 O24,3.7565999999999997,14
24528,In4 P12 O38,0.3427,59
24529,Nb8 Ag4 O22,2.3681,146
24530,Si8 B4 P4 H112 C36,5.1591000000000005,14
24531,Cd4 Sb10 O4 F62,0.0,14
24532,Rb8 Zr4 Si12 O40,0.8823,19
24533,Cd48 As32,0.0,142
24534,Er4 C12 O32,0.21629999999999994,19
24535,Mn1 Sn4 H24 C8 Se10 N2,0.9292,82
24536,Ag6 P6 O20,0.08089999999999997,12
24537,Y6 Ge26 Pt8,0.0,9
24538,Na16 H8 S8 N8 O24,3.8240000000000003,56
24539,Ho6 Si26 Ir8,0.0,223
24540,Si8 Bi4 As2 H76 C28 Cl4,2.3741000000000003,2
24541,H20 C8 S8 N12,2.3089999999999997,4
24542,Sr24 Mn12 Sb24,0.0,62
24543,Ni3 P4 H48 N2 O30,4.7425,12
24544,Sn8 H64 C16 Br24 N8,2.9305,61
24545,Se8 S8 O28,0.03639999999999999,14
24546,H16 C4 S4 I4 N8,2.2309,15
24547,Al4 Te4 H24 C8 Br12,3.7198,57
24548,Li10 Ce10 Si8 N24,0.0,117
24549,Ca2 Mn2 Sb4,0.0,59
24550,Rb3 Nd1 F6,5.4092,225
24551,Cu7 Si2,0.0,164
24552,Re2 W6,0.0,223
24553,Rb2 Sm2 I6,0.0,63
24554,Yb5 Re2 O12,0.0,12
24555,Te4 As4 Os4,0.6433,14
24556,Sr2 Tl6 O10,0.0,63
24557,Sr1 Ti4 Cu3 O12,0.0,204
24558,Sb4 Te12 O32,0.0,206
24559,Rb3 Bi1 F6,4.5456,2
24560,Nd6 Nb2 Sb10,0.0,193
24561,Ni1 Bi12 O20,0.0,197
24562,Nd10 Si6 O26,0.0,173
24563,Nd2 Br6 O12,1.6945999999999999,13
24564,Na4 Ca8 Zr4 Si8 O36,0.13380000000000014,4
24565,Mn13 Fe1 Si2 O22,0.0,164
24566,Mn6 Zn2 O14,1.7413,2
24567,Li4 In2 P4 O16,0.1782999999999999,14
24568,Li2 La4 Ti2 O12,0.0,14
24569,Mn4 P8 H24 O20,4.1686,14
24570,K4 P8 H16 O32,0.24340000000000006,14
24571,K8 O32 F8,0.9501999999999999,61
24572,K12 Cr8 As12 O48,2.2008,230
24573,In4 Cu2 S8,0.0,216
24574,In6 Ge2 Ir1 O8,0.0,225
24575,Hf4 Sb4 Pd4,0.0,62
24576,Ho6 Cu22 Si8,0.000300000000000189,194
24577,Eu4 Ga4 O12,0.0,62
24578,Gd4 Tl4 S8 O36,0.02529999999999999,14
24579,Cu4 Cl12,0.0,65
24580,Dy6 Ni22 Ge8,0.0,194
24581,Fe16 W24 O96,2.6699,14
24582,Ca2 Al2 Si2 O10,0.36939999999999973,15
24583,Ba2 Yb2 Cu2 Te6,0.0,63
24584,Ca2 B4 H4 O14,0.8272999999999999,2
24585,Ba4 Fe4 O16,1.3573,62
24586,Ba2 Y1 Cu3 O8,0.0,123
24587,Ba2 Ca2 Tb1 Ti3 Cu2 O14,0.0,123
24588,Zr1 Ti1 C1 N1,0.0,160
24589,Zr4 V4 Cu4,0.0,38
24590,Zr4 Ti4 Ni4,0.0,6
24591,Zr4 W1 C5,0.0,166
24592,Zn1 Ge1 As2,0.0,160
24593,Yb2 Ge2 Pd2,0.0,12
24594,Zn1 Fe4 Co1 O8,1.3815000000000004,160
24595,Yb4 Sc4 Sb4 O1,0.0,123
24596,Yb2 B2 O6,0.0,40
24597,Yb1 U1 Te6,0.0,38
24598,Zn2 Cu8 W10 O40,0.2896000000000001,1
24599,Y2 Fe1 Si4,0.0,38
24600,Y1 Mn6 Co6,0.0,71
24601,Y8 Mg1 Cu7 O20,0.19350000000000023,1
24602,U2 Cr2 Fe2,0.0,74
24603,V1 Fe4,0.0,69
24604,Tm1 Al1 Ni4,0.0,187
24605,Ti1 V1 As2,0.0,164
24606,Tl1 Mo6 Se4 S4,0.0,1
24607,V1 Fe2 Se4,0.0,8
24608,U4 Mn4 Al4,0.0,6
24609,U2 Mn1 Co1 Se6,0.0,12
24610,U2 Co3 Cu1 Ge4,0.0,115
24611,Ti1 Al1 Fe2,0.0,123
24612,Ti2 Cu1 Ni1,0.0,25
24613,Th1 Pb1 I6,1.4838000000000005,38
24614,Tb1 Zn1 Ag1 As2,0.23159999999999936,156
24615,Tb1 In7 Cu5,0.0,44
24616,Tb3 Ce1,0.0,187
24617,Sr2 Sm2 Sc2 O8,3.7085,36
24618,Tb4 F30,0.06559999999999988,15
24619,Ta1 Ti1,0.0,65
24620,Tl32 Si8 O37,0.8197999999999999,1
24621,Sr1 Nd2 Cu2 O6,0.0,139
24622,Sr4 Nd4 Co4 Ru4 O24,0.4154,13
24623,Sr2 La2 Cu2 Sb2 O12,0.26060000000000016,7
24624,Sr1 Be1 Si1,0.0,187
24625,Sr6 Nd8 O18,3.9175999999999997,9
24626,Sr3 Nd2 Nb10 O30,0.0,38
24627,Sr4 Gd2 Ga2 O10,2.2880000000000003,69
24628,Sr4 Eu2 Fe2 O10,0.0,69
24629,Sr2 Al3 Ge1,0.0,187
24630,Sn2 Pb2 S4,0.9853999999999998,1
24631,Sr30 Al12 O4 F96,1.0832,21
24632,Sn4 Sb2 Se4 I6,1.0918,36
24633,Sm2 Al2 Cu2,0.0,74
24634,Sm2 Co16 Ag1,0.0,160
24635,Sm4 Fe1 Sn8,0.0,25
24636,Re8 Pb8 O27,0.0,115
24637,Sm4 V20 Cu15 O60,0.0,148
24638,Pr1 Al1 Co4,0.0,187
24639,Ni4 Se4 S4,0.0,198
24640,Pr2 Fe1 Sn4,0.0,38
24641,Nd2 Ge3 Ir1,0.0,25
24642,Nb6 Ge1 Pt1,0.0,200
24643,Nb6 Zn1 S8,0.0,147
24644,Nb6 Sn1 S8,0.0,147
24645,Nb4 Fe3 Si5,0.0,38
24646,P4 H40 C8 N4 O16,5.5106,4
24647,Nb4 Al4 Co4,0.0,38
24648,Nb8 Fe2 Sb4 Pd1,0.0,121
24649,Nd1 Co10 Mo2,0.0,71
24650,Nb3 Si1 Sn1 Mo3,0.0,146
24651,Nb3 S4,0.0,164
24652,Nb3 Pd1,0.0,65
24653,Nb3 Al1 V3 Sn1,0.0,146
24654,Nb2 Se3,0.0,156
24655,Na2 Y2 Ti2 Nb2 O12 F2,2.7204999999999995,74
24656,Na1 La1 Ti8 Cu6 O24,0.0,200
24657,Na1 Fe1 Cu1 Se2,0.0,156
24658,Na2 B20 Pb8 Cl4 O38,1.2636000000000003,7
24659,Na2 U2 O7,1.5094000000000003,6
24660,Mn1 Ni7 O8,1.0324,225
24661,Mn1 Tl1 Rh2,0.0,123
24662,Na4 V20 Cu15 O60,0.0,148
24663,Mn1 Fe3,0.0,187
24664,Mn1 Al1 Pd2,0.0,123
24665,Mn3 Cr3 B8,0.0,25
24666,Mg1 Fe4 Cu1 O8,0.36190000000000033,12
24667,Mg1 Mo6 Se8,0.0,1
24668,Mg2 Al4 P6 O24,0.0,9
24669,Li1 Mo6 Se6 S2,0.0,1
24670,Li1 Ta2 Cu1 O6,1.1348000000000003,146
24671,Li3 Al2 Co1 O6,0.8795999999999999,164
24672,Li3 Ta12 O31,0.0,6
24673,La1 Gd1 N2,0.0,123
24674,La1 Y3 Ti4 O12,0.0,6
24675,La1 Al1 Cu4,0.0,187
24676,La1 Mn1 Fe3 Bi3 O12,0.7427000000000001,8
24677,La2 Nb4 Cu2 Br2 O14,0.0,5
24678,Li19 V12 O32,0.6454,8
24679,K1 La1 W2 O8,4.2466,82
24680,In1 Ni3 Sb1,0.0,187
24681,K2 H16 W2 N4 O6 F6,3.851,7
24682,In1 Ag4,0.0,166
24683,In1 Ga3 N4,0.5783000000000005,156
24684,In1 Ag2 Sb1 Se4,0.0,119
24685,In2 Cu1 Te3 I1,0.6055000000000001,1
24686,Ho4 Cr1 S7,0.0,8
24687,Hf2 Ga3 Co1,0.0,8
24688,Ho1 In7 Cu5,0.0,44
24689,Hf1 Ta5 B4,0.0,83
24690,Hf4 Si2 Ni6,0.0,194
24691,Ho2 Ti12 Cu9 O36,0.3169999999999993,147
24692,K1 Mg2 P2 H31 O23,4.2861,1
24693,Fe2 As1 S3,0.0,6
24694,Ga2 Ni5 Te4,0.0,164
24695,Fe1 Co1 Rh4 S8,0.0,216
24696,K2 U22 Ge4 O76,0.2847000000000004,163
24697,K6 U4 I14 O52,1.0834,2
24698,Er2 Mn2 Fe2,0.0,74
24699,La1 Cu1 Sn1,0.0,187
24700,Er2 Cu2 Ni2,0.0,74
24701,Er2 Fe2 Ni2,0.0,74
24702,Dy2 Ti12 Cu9 O36,0.0,147
24703,Er4 Cr1 S7,0.0,8
24704,Co1 Pt1,0.0,166
24705,Dy4 Fe1 Sn8,0.0,25
24706,Co1 H6 N2 Cl2,0.13070000000000004,5
24707,Co12 B3,0.0,6
24708,Cr4 In1 Cu1 S8,0.0,160
24709,Cr4 Cd1 Fe1 S8,0.0,216
24710,Cr4 Fe1 Cu1 Se4 S4,0.0,216
24711,Ce2 Ni2 Sn2,0.0,12
24712,Ca4 Ta4 N4 O8,1.2053000000000003,14
24713,Bi1 Pd6 Se1,0.0,166
24714,Ca4 Nd4 Mn2 Ni2 O16,0.024800000000000377,13
24715,Ba1 La4 Ti1 Cr4 O15,1.804499999999999,65
24716,Ca4 La2 Ga2 Cu4 O14,0.0,1
24717,Ba3 La1 Nb3 O12,2.6407000000000003,160
24718,Ba2 Y2 Fe1 Co2 Cu1 O10,0.0,107
24719,Ba4 Tl4 Cu2 O11,0.0,8
24720,Ba2 Pr1 Sn1 O6,0.0,148
24721,Ba3 Nd3 Co6 O17,0.0,12
24722,Ba2 Ca1 Tb2 Ti3 Cu2 O14,0.0,99
24723,Ba6 Sc3 Al3 O15,1.9943,8
24724,B2 Pt3,0.0,8
24725,Ba2 Li3 Ho3 W8 O32,3.2107,1
24726,Ag2 Os4 O12,0.0,46
24727,N2 Na2 Sn2,0.9178999999999995,186
24728,O16 Al8 Ca4,4.8499,62
24729,B2 C1 Co2 Pr1,0.0,139
24730,Al1 Ni4 U1,0.0,216
24731,O28 Na4 P8 Ti4,0.06989999999999963,14
24732,O10 Co3 La4,0.0,1
24733,O2 Ni1 Ag2,0.0,166
24734,O8 Ni2 Pr4,1.6753,64
24735,O48 Mg12 Si12 Cr8,3.4551,230
24736,Yb4 Mn4 Ge4,0.0,62
24737,Mn2 As2 Eu1,0.0,164
24738,Na2 Ca2 Ta3 O10,0.0,139
24739,Al6 Zr10,0.0,193
24740,S2 Pb2,2.0909000000000004,39
24741,Mn2 S2,0.0,166
24742,Si2 Fe1,0.0,123
24743,In4 Yb2 Au2,0.0,63
24744,Fe28 C12,0.0,62
24745,O8 Ni2 La4,1.5482000000000014,64
24746,O12 Cu6 Ba4,0.0,69
24747,Li2 Ti2 P2 O8 F2,0.15500000000000025,2
24748,O12 Mo2 La4,2.5115999999999996,14
24749,O24 S6 V4,1.6729999999999998,15
24750,O36 P12 Sn4,0.0,19
24751,Cr2 Br6 Cs2,0.0,186
24752,O6 Mg2 Cu4,0.0,59
24753,Cr4 Rb4 I12,0.15979999999999972,5
24754,Na24 Pb4 O16,1.3501000000000003,217
24755,F24 S16 As16,2.3662,57
24756,Ti1 Br2,0.0,164
24757,Mn6 As4,0.0,12
24758,Si4 Cl8,2.0151,19
24759,Na4 Cl8 Ti2,0.0,55
24760,Na2 Ti3 Cl8,0.0,166
24761,P4 Cu28 Se24,0.05960000000000054,33
24762,O8 Ag2 I2,0.09649999999999981,88
24763,Cu4 Sb6 U6,0.005799999999998917,194
24764,Li2 Ag1 Sn1,0.0,225
24765,O12 S4 Ag8,2.2506,14
24766,Si2 Dy1 Pt2,0.0,139
24767,O24 P8 Co2,0.0,4
24768,O44 P12 Ni10,0.0,14
24769,Li12 O32 P8 Ni4,0.0,14
24770,Sc4 Te6,0.0,15
24771,H4 Nb4 O12,2.6275999999999997,1
24772,Al12 Cu6 O24,0.0,156
24773,Zn2 Fe4 O8,1.6132,160
24774,Ba2 Ce4 S8,0.0,122
24775,O12 Ca4 Nb4,0.0,62
24776,Li6 Ni4 P6 O24,0.09640000000000004,148
24777,O48 P12 Mn16,0.06300000000000017,62
24778,Li4 Cu4 P4 O16,0.12750000000000017,33
24779,H8 O16 S4 Mn4,4.1165,14
24780,Si4 S16 Mn8,0.35249999999999915,62
24781,Ti2 Fe1 Se4,0.000900000000000567,12
24782,Sr2 Sm4 Nb4 O18,2.1115,36
24783,S8 V4 Cu2,0.0,227
24784,Co4 O8,0.3111999999999999,74
24785,Li2 Co2 P4 O14,0.6818,9
24786,Li4 Mo2 P4 O16,1.5135999999999998,6
24787,O20 P4 V4,1.6329000000000002,14
24788,Li4 O16 P4 Cr2,0.31810000000000005,9
24789,Li2 Mo2 P4 O16,1.3851999999999998,14
24790,Mo1 V2 O8,0.7757000000000001,12
24791,Sr1 V13 O18,0.0,148
24792,F6 Na3 Al1,5.8904000000000005,71
24793,Ca9 Si3 O15,3.3125000000000004,8
24794,Ga2 H40 C4 S4 N2 O28,4.9488,7
24795,Na4 C4 S4 N4,4.0366,62
24796,Fe8 S24 N16 Cl32,1.2118,14
24797,Pb4 S4,2.0786,36
24798,Si4 O8,5.4998,1
24799,Ga1 Se8 Mo4,0.0,216
24800,La2 Mo1 O6,3.6508000000000003,121
24801,Zn2 C4 O8,3.198,14
24802,Pb2 S2,1.6709,5
24803,K8 Mo8 P8 O44,2.5305,60
24804,Bi2,0.0,221
24805,In2 Bi2,0.0,129
24806,Cr3 Te4,0.0,12
24807,Te4 H80 C24 N8 Cl24,3.1535,205
24808,Nb6 Co18,0.0,186
24809,Hf4 Os8,0.0,194
24810,Li6 Mo4 P10 O36,1.5483,2
24811,Yb2 Fe8 Ge4,0.0,136
24812,H28 N4 O24,3.2664,19
24813,Sr1 H16 O10,3.2933,1
24814,Al8 H24 O24,3.8913,1
24815,Si16 H8 O36,5.1713000000000005,1
24816,Yb1 H2,0.0020000000000000018,225
24817,K2 La2 P8 O24,4.348199999999999,36
24818,Ba39 Li80 N9,0.0,121
24819,Co1 Cu2 Ge1 S4,0.0,121
24820,P12 C12 N24 Cl36,3.4966999999999997,14
24821,La10 V6 S12 O14,1.0339,1
24822,Ru16 S32 Cl104,0.0005000000000000004,14
24823,Rb8,0.0,1
24824,C8 N8 K6 Cu2,4.1662,161
24825,K8 S20,1.1703,19
24826,Ho14 Pb3 S24,2.1927000000000003,1
24827,U2 Ta4 O14,0.1501999999999999,74
24828,Mg2 Mo12 Se16,0.0,1
24829,Ag12 Sb12 O36,0.0,1
24830,Li2 Sn12 P14 O48,2.5803000000000003,11
24831,Bi4 P16 O48,0.06770000000000004,60
24832,Co27 Se32,0.0,2
24833,Gd7 Ti8 O26,0.3102999999999998,1
24834,Li24 Si6 O24,4.6647,1
24835,Li14 Nb16 O48,0.0,2
24836,V1 Mo1 O5,1.0061999999999998,1
24837,Ti7 Fe9 O24,1.1948000000000003,1
24838,Ca1 La9 Ti5 Cr5 O30,0.0,1
24839,Ce4 Ge6 O18,0.0,2
24840,Li3 W8 O24,0.0,200
24841,Yb2 Si12 H108 C36 N6,0.14700000000000024,159
24842,Mn9 O56 P16,0.4626,2
24843,Ba3 La1 Zn1 Re1 W1 O12,2.0437999999999996,160
24844,Fe15 O16,1.1413000000000002,1
24845,K6 Na6 Te2 P12 H12 O48,3.1763,15
24846,Fe4 H64 C16 N8 Cl16,0.001100000000000101,14
24847,Mo4 O12,0.5050000000000001,7
24848,Mo4 O12,0.7662,7
24849,Na8 Al6 Si6 Cl2 O32,0.3044,3
24850,H48 C16 N8 O36,3.2245,62
24851,P2 Se2 Nb2,0.0,71
24852,Li6 Sb2 S8,0.6929000000000003,13
24853,K3 Na1 Fe1 Cl6,0.011299999999999866,166
24854,Lu6 Ta2 O14,3.3662999999999994,63
24855,Ba12 Cl8 O8,2.4532999999999996,62
24856,Li3 Cu2 F8,0.0,1
24857,Dy2 B2 O6,4.514,40
24858,Bi6 O10,0.1355000000000004,15
24859,Ce1 Sm1 O2,0.0,166
24860,Li3 Cu4 F9,0.0,1
24861,Sm4 Er4 O12,4.6071,62
24862,Li4 Cu2 P2 O8,1.1851000000000003,1
24863,Ca2 Tm4 O8,3.3400999999999996,63
24864,La3 Ti2 N3 O4,0.9397999999999991,71
24865,Ga12 N4 O12,1.4853999999999998,1
24866,Ce2 Sm2 O4,0.0,1
24867,Ho4 Ti4 O12,0.0,33
24868,Cd2 Ag4 O8,0.427,70
24869,Ho4 Te2 O12,2.5187999999999997,136
24870,Li1 Ti8 O13,0.0,148
24871,Li4 Zr1 Nb1 Te2 O12,0.0,1
24872,Ca4 Ce4 O12,2.3372999999999995,62
24873,Na6 Cu2 B2 P2 O14,0.0,11
24874,Li12 Bi4 O12,2.7094000000000005,217
24875,Cd4 Se4 O16,1.5661999999999998,14
24876,Y6 Al6 O18,4.0582,63
24877,Li5 Cu5 Sb2 O12,0.0,5
24878,La2 Ti12 O24,0.0,12
24879,Li8 Si8 Bi8 O32,2.9488000000000003,173
24880,Na4 Te2 H10 S2 O20,0.1906,9
24881,Ni6 C2,0.0,167
24882,Li2 Nb4 O8,0.0,6
24883,As12 H48 C16 S20 N4,1.9453,2
24884,Li4 Bi8 P4 O24,2.7156,14
24885,Na6 Ti11 O24,0.0,8
24886,Be1 P1 O4,0.0,82
24887,Sm2 B2 O6,4.3574,40
24888,Na4 Pt1 O4,0.81,12
24889,Li4 Ag2 F6,1.9705,15
24890,Li6 Bi2 P4 O16,3.4539000000000004,15
24891,Na32 Ti4 O24,2.0926,33
24892,Ca8 W4 O20,3.0115999999999996,62
24893,Li4 Cr2 P4 O14,3.0176999999999996,2
24894,Li8 Mn8 Si16 O48,0.7142,1
24895,Li6 Fe3 Co1 P6 O24,1.7217999999999998,1
24896,Li4 Fe4 P4 O16,3.6337,14
24897,Li4 Mn4 P4 O16,3.061,15
24898,Li4 Mn2 V4 P6 O24,0.5599000000000003,5
24899,Li7 Fe7 Si1 O16,1.9546999999999999,1
24900,Li2 Fe2 Si6 O16,3.2145,5
24901,Mn3 Ni2 P6 W1 O24,0.04520000000000035,146
24902,Li4 Sb4 P16 O48,3.7771,14
24903,Li4 Co4 P4 O16,2.9618,33
24904,Li4 Cu6 F14,0.0,55
24905,Li12 Ni12 P12 O48,3.1173,14
24906,Li6 Fe4 C8 O24,1.2538,4
24907,Sn16 N16 O8,0.03880000000000017,1
24908,Li12 Cr4 Si8 O28,2.7976,62
24909,Li3 Co2 C4 O12,0.9728,1
24910,Li4 Cr2 Si6 O16,3.1126000000000005,4
24911,Li4 Cr4 Si2 O12,2.847,1
24912,Li10 Fe10 O24,0.0,1
24913,Li6 Cr3 P6 W1 O24,1.5734,1
24914,Li2 Mn1 Ni3 O8,0.0,2
24915,Li6 Fe4 Si4 O16,1.3314,4
24916,Li4 Fe4 Si4 O16,2.7244,7
24917,Li6 V3 P6 W1 O24,1.5166999999999997,1
24918,Li3 Ti2 Fe2 O8,1.0143,2
24919,Li8 Fe6 P6 O24 F2,3.5868999999999995,218
24920,Li6 Co4 Si4 O16,0.34999999999999987,7
24921,Li4 Co4 Si4 O16,1.4218000000000002,33
24922,Li16 Co16 Si16 O64,1.2887,9
24923,Mn8 O12 F4,0.0,63
24924,Li16 Mn16 F48,3.3421,88
24925,Li4 Cr3 Co3 O12,0.7501000000000002,2
24926,Mn2 Fe3 Co1 P6 O24,0.0,146
24927,Mn12 O5 F19,0.0,1
24928,Li2 Mn2 P4 H3 O16,0.27500000000000013,1
24929,Li3 Ni2 C4 O12,0.018100000000000005,1
24930,Li12 P8 W4 O32,3.9891,14
24931,Li3 Ti2 V2 O8,0.0,12
24932,Li13 Mn8 O24,0.0,1
24933,Li4 Ti3 V3 O12,0.0,2
24934,Li8 Mn6 Sn4 O20,0.45670000000000055,2
24935,Li6 Ti6 V3 O18,0.27830000000000066,2
24936,Li1 Ti2 V1 O6,1.5649999999999995,12
24937,Fe8 O8 F8,1.7348,6
24938,Li2 Co2 Ni2 O8,0.0,74
24939,Li6 Fe4 Si4 O16,1.6844000000000001,7
24940,Mn6 O4 F10,0.9756999999999999,1
24941,Li3 Co2 Ge2 O8,0.0676,1
24942,Li2 Fe1 Co3 O8,0.1896,12
24943,Li8 Mn12 W4 O32,1.0537999999999998,19
24944,Mn8 O8 F8,0.0,1
24945,Li20 Mn4 V12 O32,1.7765,1
24946,Mn12 O5 F19,0.0,1
24947,Na1 V5 O10,1.0100000000000002,1
24948,Li1 Co5 O5 F1,0.0,156
24949,W8 O8 F32,4.5049,14
24950,Li1 V3 O1 F11,1.5191999999999999,1
24951,Fe12 O13,0.0,148
24952,Li4 Fe8 B8 O24,1.4644000000000001,1
24953,Li4 Fe8 B8 O24,1.5942999999999998,1
24954,Li4 Fe8 B8 O24,1.5639,1
24955,Li12 Mn2 V6 P12 O48,0.0,5
24956,Li3 Fe8 B8 O24,1.7432999999999998,1
24957,Li12 Mn6 F24,3.8456,148
24958,Li6 Fe8 B8 O24,1.2706,1
24959,Mn12 O5 F19,0.13549999999999995,1
24960,Zr9 V1 O20,1.714,1
24961,W8 O8 F32,5.0623000000000005,14
24962,Mn8 F28,0.4626999999999999,14
24963,Li8 Ni8 P8 O32,3.2171999999999996,61
24964,Li1 Ni6 O6 F1,2.2594000000000003,139
24965,Li6 Nb1 Fe5 O12,1.7344000000000004,8
24966,Li4 Fe5 Ni1 P6 O24,1.5656000000000003,1
24967,Li3 Mn1 P2 O8,0.5757999999999996,12
24968,Zn2 Ni8 O10,1.9107000000000003,12
24969,Li12 V10 P16 O56,2.633,2
24970,Li4 Fe4 P4 O16,3.3409000000000004,2
24971,Li4 Fe8 B8 O24,1.43,1
24972,Mn6 O5 F7,0.17169999999999996,1
24973,Ba4 Ca4 I16,3.6308,60
24974,Li6 V6 P16 O58,0.5831999999999999,5
24975,Li4 Mn4 P4 O16,3.3549,33
24976,Li4 V8 O20 F4,2.1494,18
24977,Li2 V6 O4 F12,1.2184000000000001,2
24978,Li4 V4 F16,2.3366,14
24979,W2 O2 F8,4.8905,2
24980,Li4 V4 F20,1.5758,62
24981,Li4 V1 F8,1.9347,3
24982,Li16 Cr4 S16,0.45889999999999986,62
24983,Li4 Mn2 O1 F7,0.42490000000000006,1
24984,Zr7 V1 O16,1.9250000000000003,8
24985,Li2 Mn4 P4 O16,0.10029999999999983,1
24986,Li4 Mn2 O4 F2,0.0,164
24987,Li4 Mn5 O9 F1,0.7694000000000001,8
24988,Li3 Mn5 O1 F11,2.2348999999999997,1
24989,Li4 V2 Si12 O30,2.0913,4
24990,Li1 Mn2 P2 O8,0.2799,5
24991,Li2 Mn4 P4 O16,0.2232,7
24992,Li6 V1 Co1 P2 C2 O14,0.8690000000000002,6
24993,Li12 Mn4 P4 C4 O28,3.5059,1
24994,Mn5 O5 F1,0.0,156
24995,Mn1 V3 Sb2 P6 O24,0.0043999999999999595,146
24996,Li4 Mn2 Fe4 P6 O24,1.5432000000000001,5
24997,Li4 V4 Si4 O16,2.2633000000000005,33
24998,Li4 V4 Si2 Ge2 O20,1.8519999999999999,49
24999,Ti8 Ni2 P8 O40,0.13070000000000004,14
25000,Li12 Mn3 V1 P4 C4 O28,2.6856,6
25001,Li9 Fe5 Si2 O16,1.6460999999999997,10
25002,Li4 Mn3 Fe2 O10,0.41159999999999997,1
25003,Li12 Mn3 Cr1 P4 C4 O28,2.3728,6
25004,Li12 Mn4 P4 C4 O28,3.4172000000000002,1
25005,V4 P4 H20 O28,1.8483,14
25006,Li4 Fe4 Si4 O16,2.8707000000000003,14
25007,Mg1 Fe11 O18,0.0,1
25008,Li2 Fe1 C2 O6,3.4101,12
25009,Li5 Mn17 Si2 O32,0.3482000000000003,1
25010,Li6 Sb2 S8,1.5048999999999997,9
25011,Li24 V8 S32,1.3562,43
25012,Li40 B8 O32,5.3947,61
25013,Ba6 Y4 Cl24,4.5853,15
25014,Li8 Nb4 S12,0.22419999999999973,15
25015,V6 P4 O16,2.1649999999999996,14
25016,Li4 V6 Cr2 O16,0.9900000000000002,2
25017,Li1 Mn7 O12,0.0,204
25018,Li4 Fe5 Sn3 O16,0.0,1
25019,Li4 Mn3 Co5 O16,0.19789999999999974,1
25020,Cr2 Fe4 O10,0.47870000000000035,15
25021,V4 Ge4 O12,0.01240000000000041,15
25022,V4 S4 O16,3.1104999999999996,62
25023,Li5 Cr2 Cu3 O10,0.17579999999999973,2
25024,Li6 Cr3 Fe3 O12,1.9275000000000002,1
25025,Li10 Mn2 O8,1.0329,59
25026,Li6 V6 B4 O20,1.0658999999999996,26
25027,Li6 Co2 B10 O20,3.0380000000000003,2
25028,Nb4 As4 O16,2.6353,33
25029,Li12 Cr12 Ni4 O32,0.0,6
25030,Li6 Sn2 B4 O12,1.7273,2
25031,Li6 V2 B10 O20,2.6285,2
25032,Li6 V6 B4 O20,0.7012,1
25033,Li6 V6 B4 O20,0.4739,1
25034,V10 B2 O18,1.4442,36
25035,Li4 Ti3 Mn3 Co2 O16,0.7553000000000001,1
25036,Li4 V2 H4 O2 F10,2.5167,15
25037,Mn4 O6,0.0,167
25038,Li12 Al8 Fe4 O24,2.3459999999999996,14
25039,Si8 As8 O28,4.5533,2
25040,Ba10 Sc12 O28,3.6435000000000004,36
25041,V5 Cr1 P6 O24,0.0,146
25042,Li3 Mn1 Co4 O8,0.0,12
25043,Li8 Cr8 O28,2.1985,92
25044,Lu4 W6 O24,3.8813000000000004,15
25045,Li4 Ni8 O16,0.3373999999999997,186
25046,Mn6 Te2 O16,0.0,36
25047,V2 Co2 O8,0.6005,63
25048,Li6 Mn2 P2 C2 O14,3.8050999999999995,4
25049,Na1 Fe2 Si4 O12,0.0,5
25050,Li4 Fe1 Cu3 O8,0.0,166
25051,Fe5 Cu1 P6 O24,0.5262,146
25052,Ti2 Mn3 Co3 O16,0.0,8
25053,Li4 Cr3 Fe3 Sb2 O16,1.678,8
25054,Sr8 La8 Cl40,3.6632000000000007,14
25055,Li4 Ti26 O44,0.0,64
25056,La4 Cu1 O8,0.0,65
25057,Li4 Nb4 Cr4 O16,1.0406,95
25058,Mn3 Cr1 P6 O24,0.06729999999999992,146
25059,O4 Na2 U1,2.0224,139
25060,Li8 Cr2 O10,1.2736,2
25061,Na2 Si2 Sb2 C2 O14,2.8386,4
25062,Li4 Ni4 P4 O16,3.3278000000000003,33
25063,Er1 Bi12 O20,0.0,197
25064,Lu4 P8 O26,5.344,15
25065,Na6 Mn2 B2 S2 O14,2.4280999999999997,11
25066,Mn6 Fe2 O16,0.0,186
25067,Li5 Nb2 Fe3 O10,0.2818999999999994,2
25068,Li3 V1 Fe3 O8,1.3331,166
25069,Li2 Cr1 Cu1 O4,0.0,10
25070,Li4 Fe6 P6 O24,1.4682,5
25071,Li2 Ni3 W1 O8,0.0,166
25072,Li32 Mn8 O36,0.0,2
25073,Li4 V6 P6 O24,0.4490000000000003,5
25074,Li5 Mn5 P6 O24,0.4727000000000001,1
25075,Li8 V4 Fe12 O32,1.3039,212
25076,Li2 Co2 Ge2 O8,1.621,7
25077,Li8 Co4 P6 O24,0.0,2
25078,Li12 Cr12 P12 O48,0.9944999999999999,14
25079,Li2 Mn1 O2,0.0,71
25080,V3 Sb1 P4 O16,1.5302999999999995,6
25081,Nb1 Fe1 O4,1.0865,119
25082,Li4 Cr4 P4 O20,0.6720000000000002,14
25083,Li12 Cr12 Cu8 O48,0.0,14
25084,Li6 Sb2 P4 O16,3.1538999999999997,11
25085,Li8 Cr4 P12 O40,3.2399,14
25086,Mn3 Nb1 P4 O16,0.12919999999999998,6
25087,Li4 Cr1 P6 H8 O22,2.7359999999999998,2
25088,Co6 Se8 O24,0.0036000000000000476,14
25089,Li8 Mn12 Ni4 O32,1.5294,1
25090,Li4 Cr12 P16 O60,2.2298,7
25091,Li12 Mn4 V4 P12 O48,0.4086000000000003,1
25092,Li12 Mn4 V4 P12 O48,0.2565999999999997,1
25093,Li8 Cr12 Ni4 O32,0.6016999999999997,1
25094,Li12 Mn6 Si12 O36,3.0724000000000005,43
25095,Li2 Nb2 Co2 O8,1.0190000000000001,74
25096,Li4 Mn3 Sn2 Sb3 O16,0.0,8