Index,Composition,bandgap,spgN
8621,Gd1 H9 C5 N2 O8,3.0433000000000003,5
8622,La2 Mn3 Cu9 P7,0.0,174
8623,La6 Be2 Sb2 S14,1.4983000000000004,173
8624,Sb8 Br2 O12,0.0,12
8625,K2 Pt2 S4 O18,0.0,2
8626,Ce8 Co2 S14,0.008799999999999919,4
8627,Al2 H16 C6 N2 Cl4,5.3316,2
8628,Cs4 U2 P4 O20,0.010899999999999993,14
8629,Sc2 H6 C6 O12,3.8243,167
8630,Tl8 P4 O16,0.0,14
8631,Na2 Co2 Si8 H72 C24 N4 O1,1.9392,2
8632,Pu2 N4 O22,0.06679999999999975,2
8633,Fe4 P4 H16 N8 O16,2.2051,56
8634,Mn4 H28 C12 N4 O24,3.5785,33
8635,H24 C12 S4 N8 O8,4.2544,14
8636,Cu2 H48 C18 S6 I2 N12,2.6954,2
8637,H108 C36 S8 N12 O20,3.7733,14
8638,Nb12 O30 F2,0.0,51
8639,Sb2 H4 C2 S2 O6 F18,4.9764,2
8640,Co4 P8 H40 N8 O32,3.2174,14
8641,K4 Mo4 H8 C8 O30,2.7858,14
8642,Ce4 I16 O52,0.7725,14
8643,Na4 Ca2 Zr4 Si20 O54,0.04359999999999997,15
8644,Cd4 H20 Br12 N8,2.8038,14
8645,Zn4 Si12 Ge4 H140 C52 Cl4 O4,3.5833000000000004,14
8646,Mn16 Si12 Cl2 O48,0.41389999999999993,12
8647,In4 Se8 O24,0.43649999999999994,14
8648,Al24 Ir8,0.0,223
8649,Zn2 Si6 Ge2 H70 C26 Br2 O2,3.4411,2
8650,K4 Li4 Si8 H120 C48 N8 O4,2.7180999999999997,41
8651,Cu4 H24 C8 O28,0.13419999999999999,54
8652,Fe4 Se8 O24,0.436,14
8653,Si4 B8 H200 C84 N8,4.3946000000000005,33
8654,Mg2 H24 C8 S8 O12,1.871,15
8655,Ba2 Ti2 Fe4 Si4 O20,1.7465000000000002,11
8656,Hg8 W8 O32,1.7038999999999997,14
8657,H22 C2 S2 O16 F6,5.6452,2
8658,Li4 H16 C4 S4 N4 O8,4.0254,62
8659,Cs8 Co8 P8 O32,1.9053,14
8660,Ca16 Ge12 O44,0.0,40
8661,B20 Pb8 O42,0.10850000000000004,14
8662,B20 Te4 H20 C4,2.122,2
8663,Na3 Ce3 S6 O27,0.5382,152
8664,Mn4 Sn4 H64 C24 S12 O44,2.7607,14
8665,U4 Fe30 Ge4,0.0,63
8666,Eu20 Mn12 Sb26,0.0,12
8667,Mn2 P4 H18 C4 N2 O14,4.3039000000000005,9
8668,Si46,1.3016999999999999,63
8669,Cs4 Mn4 N36,1.5952000000000002,14
8670,Li8 Fe8 P8 O32 F4,0.6774,60
8671,Li1 Ca2 Re1 O6,1.5641000000000003,225
8672,Rb3 Pr1 F6,4.6772,139
8673,K3 Tm1 F6,5.0973999999999995,139
8674,K3 Lu1 F6,5.1483,139
8675,Tm1 Cu1 Te2,0.4494000000000007,164
8676,Sm1 Si2 Ru3,0.0,191
8677,Cs3 Sb1 F6,3.3922,2
8678,Rb3 Au1 F6,0.9933000000000001,2
8679,Pr2 Co1 O4,0.0,139
8680,Zr4 Pb4,0.0,14
8681,Zn16 Mo12 O48,1.1134999999999997,62
8682,Rb2 Yb2 Zn2 Se6,0.0,63
8683,Re12 Pb8 S24,0.3031000000000006,15
8684,Nd1 Nb2 Cu1 Cl1 O7,0.0,123
8685,Na4 W4 O15,1.6960000000000002,2
8686,Nd2 Fe21 B6,0.0,225
8687,Na8 Zr4 Ge10 H2 O32,2.4779,13
8688,Na6 Yb2 Br12,0.04190000000000005,14
8689,Na6 Zn4 W6 O24,1.8342,15
8690,Na3 La1 As2 O8,3.2798000000000003,164
8691,Mn12 Si4 Ni4,0.0,198
8692,Mn2 V2 Pb1 O10,0.010199999999999987,12
8693,Li2 In1 Pb1,0.0,216
8694,Li2 Fe1 N1,0.0,191
8695,Li2 La1 Nb6 O18,0.0,47
8696,K4 U2 Mo6 O24,0.02829999999999977,15
8697,K3 Au1 F12,0.6682000000000001,12
8698,Ce16 Cd4 Pd4,0.0,216
8699,Ca1 La2 Cu2 O7,0.0,139
8700,Bi12 Ir1 O20,0.0,197
8701,Ca4 Fe6 Si6 O28,0.0,12
8702,Be12 Tl8 Co8 F48,0.01100000000000012,198
8703,Ba2 Eu1 Cu2 Hg1 O7,0.0,123
8704,Au2 I4,0.0,131
8705,Cd12 H40 C16 S8 N40 O28,3.0835000000000004,14
8706,Zr1 Ti1 C2,0.0,123
8707,Zn1 Si1 As2,0.0,160
8708,Zn1 Cd1 Ag2,0.0,35
8709,Zn1 Cd1 Te1 Se1,0.0,160
8710,Yb1 Ga1 Cu1 O4,0.0,160
8711,Zr4 V6 Si2,0.0,194
8712,Zn13 Fe1,0.0,12
8713,Yb2 Cu2 Pb2 S6,0.0,36
8714,Yb4 Sm8 Cu4 S20,0.0,62
8715,Y1 B2 Mo1,0.0,38
8716,Y1 Ag1 Se2,0.0,123
8717,Y4 Ge1 O8 F2,0.45119999999999993,1
8718,W2 N2,0.0,160
8719,Y2 Co5 Cu5,0.0,47
8720,Y1 Fe10 W2,0.0,71
8721,V2 Fe1 Te4,0.0,8
8722,U3 Al3 Co1 Ru2,0.0,189
8723,Ti4 O3,0.0,139
8724,Ti12 Co6 Ni6,0.0,44
8725,Te1 I4,0.2827000000000002,12
8726,Th1 Zn11,0.0,47
8727,Tb4 Al4 Ni4,0.0,38
8728,Ta2 Al2 Fe8,0.0,164
8729,Sr1 Nd2 Ti4 O12,1.7193,99
8730,Sr2 Zn1 Bi2,0.0,38
8731,Sr2 Nd2 Cr1 Ni1 O8,0.5093000000000001,38
8732,Sn1 Bi1,0.0,65
8733,Sn1 As1 Pd6,0.0,166
8734,Sm12 Co4 Si6,0.0,6
8735,Rb6 Na2 Nb4 O6 F20,1.0153999999999999,5
8736,Rb1 Nb2 S4,0.0,164
8737,Nd1 Nb4 O12,0.0,38
8738,Ni2 As4 Rh6,0.0,26
8739,Nd2 Co5 Cu5,0.0,47
8740,P24 H96 N76,1.5149000000000001,19
8741,Mn1 Sn1 Pd2,0.0,123
8742,Mn1 Ga1,0.0,187
8743,Mn3 Si1,0.0,123
8744,Mn2 H14 C6 N2 O12,3.5527,5
8745,Na4 H24 S2 O22,0.4497,43
8746,Mn8 Fe4 Sb6,0.0,115
8747,Li4 Mn1 Co2 Ni1 O8,0.0,10
8748,La1 Th1 C1 N1,0.0,160
8749,La1 Ce1,0.0,166
8750,K3 Na1 S2,1.9466,187
8751,In1 Ag1 S2,0.0,156
8752,In1 Ga3 O6,1.3095000000000003,8
8753,Ho2 Si3,0.0,44
8754,Hf16 Ge2 Mo10,0.0,38
8755,Er2 Al1 Ge4,0.0,38
8756,Dy2 Si3,0.0,44
8757,Er1 Ag1 S2,0.0,123
8758,Dy2 Tm2 Mn8,0.0,164
8759,Co2 H14 C6 N2 O12,2.7759,5
8760,Cr1 Pt4,0.0,166
8761,Cr3 Ni1 Sb4,0.0,164
8762,Ce1 Al1 Cu2 Ni2,0.0,38
8763,Co4 P6 H22 N4 O18,2.612,9
8764,Ca2 Al8 Si4 O22,5.0869,9
8765,Cd2 Ga1 Ag1 Se2 S2,0.09329999999999994,6
8766,Ce3 Sn1 O8,1.4740000000000002,166
8767,Ca8 Yb3 Se12,0.0,115
8768,Ca1 U1 F6,0.1073000000000004,38
8769,Ca1 La4 Ti3 Ru1 O15,0.0,156
8770,Fe30 Ge6 P6,0.0,8
8771,Ca4 Si2 O8,4.2033000000000005,5
8772,Cd4 H36 C12 S4 Br4 Cl8 O4,3.7799,19
8773,Bi14 W1 O24,0.0,87
8774,La6 Nb1 Ga11 O28,2.6990999999999996,1
8775,Ba1 Bi1 Br1 O2,1.6797000000000002,107
8776,Ba2 In2 O6,0.0,38
8777,Al2 Si6 O16,0.0,4
8778,Ba2 Co1 Ni1 S4,0.0,99
8779,Ba2 Ge3,0.0,44
8780,Al1 Cd1 In1 S4,0.738,160
8781,Ag3 Sn1,0.0,187
8782,Co2 Ni2 P8 H64 O40,2.8039,120
8783,Ag1 Sb1 Te16 Pb14,0.7008000000000001,139
8784,Ca2 P4 H11 N1 O18,2.1256999999999997,1
8785,Al6 W3,0.0,181
8786,O6 Ti2 Cd2,2.9224999999999994,148
8787,O48 Al8 Si12 Sr12,4.4318,230
8788,O6 Si2 Cu2,0.10299999999999976,51
8789,O12 Ca1 Cu3 Ge4,0.7027999999999999,204
8790,O10 Si4 Mn2,3.4858000000000002,15
8791,N5 P3,2.6235999999999997,44
8792,F1 Rb1,5.9045,221
8793,V2 Mn2 As2,0.0,129
8794,S4 Fe1 Ga2,0.3544999999999998,164
8795,Ca2 Hg2 Pb2,0.0,194
8796,Mn4 Ge4 Tb4,0.0,62
8797,U6 Bi8,0.0,220
8798,B32 Cl32,0.9004000000000001,19
8799,O11 Co4 Ba2 Tb2,0.05410000000000004,47
8800,La2 Fe2 As2 O2,0.0,129
8801,H8 N2 O16 V6,2.1322,11
8802,Li2 Sn2 P4 O14,0.0,1
8803,Li2 O14 P4 Sn2,0.13139999999999974,2
8804,Li1 S2 Sn1,0.0,164
8805,Fe3 Pd1,0.0,221
8806,Li8 O32 P8 Fe4,0.0,14
8807,O14 Mo4 La4,0.4386000000000001,58
8808,O8 Mg4 V2,0.0,227
8809,O4 I12 W4,0.9198,136
8810,Bi1 O2,0.0,225
8811,Bi1 Br1 Te1,1.2233,156
8812,Cd2 S8 Tb4,1.8687999999999998,122
8813,Tb10 Ti6 O27,2.6132999999999997,8
8814,Cd2 Pr4 Se8,0.9727000000000001,122
8815,U30,0.0,102
8816,Cd1 Cu3 Ti4 O12,0.0,204
8817,Cs4 Fe2 K2 N12 C12,3.621,14
8818,Fe1 N12 C6 Co1 H18,2.287,148
8819,O8 V4 Fe2,0.0,227
8820,Al3 Cu6 H36 O36 Sb3,0.23320000000000007,1
8821,Li6 Fe2 P4 O18,0.018399999999999972,1
8822,Fe12 O16,0.35809999999999986,4
8823,Si16 O32,5.7494,140
8824,Zr1 Co1 F6,0.0,225
8825,Lu2 P2 O8,5.9929,88
8826,K8 P4 O16,3.2014,14
8827,La1 Sc3 B4 O12,3.9049,155
8828,Tl4 H4 C4 O8,3.4859,52
8829,Cu4 H40 C8 O32,0.0,14
8830,C8 S4 N12 Cl12,3.1683000000000003,14
8831,Tl4 H4 C4 O8,3.5008,33
8832,K1 Sn1 S2,0.0,166
8833,C16 S8 N8 Cl16 F40,3.4123,14
8834,Si16 O32,5.6113,18
8835,Te4 H48 Au4 C16 S12 N4,2.065,14
8836,Pr2 Mo12 O24,0.0,87
8837,K2 Hg3 C8 N8 O8,3.3064,2
8838,Na3 Co2 Sb1 O6,0.2322999999999995,2
8839,Cr6 Ag16 I4 O24,1.4225,176
8840,Ca4 Ni2 W2 O12,3.1335999999999995,14
8841,Li2 In1 Ir1,0.0,225
8842,Li2 Zn1 Ge1,0.0,225
8843,V3 Au1,0.0,221
8844,Nb6 Te2,0.0,223
8845,Pr2 Re4,0.0,227
8846,Si2 H34 C22 N2,3.9636,2
8847,Yb2 Hg2 Pb2,0.0,194
8848,Ta4 H80 C24 N12 Cl16,2.1963,14
8849,Mn1 B2,0.0,191
8850,O16 Mg4 Al8,4.9766,62
8851,H112 C32 N8 F24,7.115600000000001,61
8852,Fe4 Sb8 O16,1.2401999999999997,84
8853,Pt4 C8 Cl8 O8,2.9238,14
8854,Ba10 Fe8 S22,0.045700000000000074,31
8855,Fe4 H4 O8,1.7592,33
8856,Zn1 H2 O2,2.4945999999999997,5
8857,V6 H4 O13,0.0,5
8858,Fe4 H14 O13,1.8444,1
8859,Ag4 Sb4 S8,1.5593000000000001,9
8860,Zr1 H1,0.0,119
8861,In1 Ag1 S2,1.21,12
8862,Nb8 Fe4 O24,2.2508999999999997,7
8863,Hg4 S16 N12 Cl12,1.8896,14
8864,Th2 Pb2,0.0,141
8865,Gd4 Mn2 S8,0.8617999999999997,122
8866,Co2 Ni4 S8,0.0,43
8867,La12 Cu10 O31,0.0,5
8868,La1 Zr9 O20,0.0,2
8869,Nb2 Hg4 F12,0.0,15
8870,Li4 Ti4 Cl12,0.0,8
8871,Yb2 Zr8 O19,0.0,1
8872,Sr8 La2 Cl22,2.3272000000000004,1
8873,Li4 Sn4 P8 O28,0.0,7
8874,Cu2 S4,0.0,5
8875,Bi2 F6,5.0761,194
8876,Fe12 Co6 O24,1.2969,5
8877,Ba3 La9 Mg7 Nb5 O36,2.9983000000000004,25
8878,Na8 H8 N8 O16,2.9794,57
8879,Ba1 Al3 P2 H2 O14,0.0,8
8880,Cs4 H4 C8 O16,2.7051,14
8881,O8 Sn4,0.5796999999999999,205
8882,Ba6 W2 O12,2.5551,1
8883,Fe16 P12 O48,0.5861999999999998,62
8884,Mn16 P16 O64,0.3601,9
8885,Li4 Ni4 P8 O28,0.008000000000000007,14
8886,Mn16 P16 O64,0.33510000000000006,9
8887,Ti6 Fe10 O24,0.9830999999999999,2
8888,Li2 Ni21 O42,1.0205,2
8889,Zn4 P8 H60 C20 N4 O36,4.7839,19
8890,Ge4 H48 N16 F32,2.4704,56
8891,Ge4 Au4 U4,0.0,194
8892,Li20 Sn2 P4 O24,3.2725999999999997,1
8893,O2 Na1 Ru1,0.005300000000000082,166
8894,Na2 Fe4 H6 S4 O16,3.7334,2
8895,Na3 Cr1 H14 C6 O16,3.5970000000000004,2
8896,Ni2 H20 C4 N8 O12,4.3575,15
8897,Ba8 Sr4 I24,2.5702000000000003,206
8898,Li5 Cr1 S4,0.9084999999999996,12
8899,Li1 Ti4 O8,0.0,2
8900,La1 Bi2 O4,0.0,166
8901,Li2 Cu2 B2 O6,0.0,2
8902,Ba2 Y6 Br22,3.0403000000000002,51
8903,Zn2 Cu4 O6,0.0,59
8904,Sc4 Ti4 O12,0.0,33
8905,Sc2 Tl2 O4,0.9721000000000002,194
8906,Tm1 Tl1 O2,1.3081,166
8907,Ho1 Tl1 O2,1.4284000000000003,166
8908,Nb4 O8,0.0,2
8909,Er1 Tl1 O2,1.3714999999999997,166
8910,Sm1 Tl1 O2,1.7153999999999998,166
8911,Ti2 Cu3 Te3 O16,0.0,1
8912,Dy1 Tl1 O2,1.4823999999999997,166
8913,Ti1 O1,0.0,187
8914,Sm4 Te2 O12,2.5849,136
8915,Y4 Hg4 O10,1.6972,1
8916,Ca4 Pr2 O8,0.0,55
8917,Li2 Cu2 O2,0.9533,63
8918,Sr3 La4 O9,3.0779000000000005,146
8919,Ho4 Zr4 O14,2.4812,227
8920,Na12 Nb1 O7,0.0,148
8921,Tb4 Gd4 O12,3.0933,62
8922,Ba2 Y2 I10,2.1035,15
8923,Ca4 Pb4 I16,3.0673,14
8924,La4 Si6 O18,4.4651000000000005,2
8925,Eu4 Ca2 O6,0.0,36
8926,Sr3 Nb4 O13,0.988,139
8927,Li12 Cu4 O8,2.554,14
8928,Li4 B2 P2 C2 O14,5.7155,11
8929,Lu4 Nb4 O14,0.0,227
8930,Lu6 Al6 O18,3.7125000000000004,63
8931,Li3 Cu3 B3 O9,0.0,174
8932,Li4 Si4 Bi4 O16,3.1885000000000003,7
8933,Li14 Ti4 P14 O48,0.21480000000000032,13
8934,Li2 Ti1 Cu1 O4,0.0,119
8935,Li2 Nb2 P8 O24,0.18080000000000007,12
8936,Li2 Sn4 P10 O32,2.2785,7
8937,Li2 Ti3 P9 O28,0.006699999999999928,2
8938,Li4 Ti4 P8 O28,0.2824,14
8939,Li4 Ti4 P8 O28,0.09889999999999954,14
8940,Li4 Cu6 C6 O18,0.0,6
8941,Li6 Sn6 P8 O32,0.0,4
8942,Li6 Ti4 P6 O24,0.0,5
8943,Li2 Ti2 P8 O24,0.21700000000000008,15
8944,Li4 Ti4 P16 O48,0.0748000000000002,20
8945,Li4 Cu4 P4 O16,0.0,60
8946,Li2 Cu2 P2 O8,0.0,63
8947,Li4 Cu4 P4 O16,0.019400000000000084,4
8948,Li24 Cu8 Si8 O32,0.8529999999999998,88
8949,Li4 Cu4 P4 O16,0.4650000000000003,14
8950,Li12 Cu12 P12 O48,0.0,14
8951,Li2 Bi4 S6 O24,0.5619000000000001,167
8952,Bi25 B1 O39,1.8876,1
8953,Li8 Sn4 B8 O24,2.385,7
8954,Hf6 N6 O3,1.8812000000000006,8
8955,Sn18 O8 F20,2.4885,85
8956,Li10 Zn3 Ge4 O16,2.7679,1
8957,Li2 Nb1 P2 O8,0.0,2
8958,Fe1 Cu5 S4,0.0,160
8959,Li3 Cu1 Te4 O12,0.4291999999999998,1
8960,Bi4 O4 F4,2.3785999999999996,1
8961,Li4 Fe2 Si12 O30,0.2641,9
8962,Li4 Fe4 P4 O16,3.3556999999999997,33
8963,Li4 Fe4 P4 O16,3.3973,15
8964,Li24 Mn4 Si4 O24,2.9524000000000004,198
8965,Li4 Nb4 B8 O24,3.0477999999999996,14
8966,Li2 Ni2 P2 O8,2.5709,63
8967,Li4 Ni4 P4 O16,3.1384999999999996,4
8968,Li12 Ni12 P12 O48,3.391,14
8969,Li8 Mn4 C4 O16,2.1318,14
8970,Li4 Fe4 C4 O16,2.2213000000000003,14
8971,Li2 V4 C8 O24,0.5413000000000001,7
8972,Li4 Fe4 P8 O28,2.1889,14
8973,Li10 Cr10 O24,0.0,1
8974,Li4 Fe4 P4 O16,3.2958999999999996,33
8975,Li2 Fe8 P6 O24,2.8418,9
8976,Li3 Fe2 Ni3 O10,0.0,1
8977,Li12 Fe12 P12 O48,2.8914,3
8978,Li4 Fe4 P4 O20,0.0,15
8979,Li9 Co15 O28,0.1903999999999999,2
8980,Fe6 O6 F6,1.3802,2
8981,Fe2 O2 F2,0.9937,65
8982,Fe8 O6 F10,0.29879999999999995,11
8983,Li4 V4 C8 O24,2.3653,2
8984,Li8 V4 O8 F4,1.1566,1
8985,Li4 Mn4 F12,3.4080000000000004,72
8986,Li8 V4 O8 F4,1.1979000000000002,1
8987,Li8 V4 O8 F4,1.0057,1
8988,Fe8 O8 F8,1.6225,88
8989,Li2 Co2 Si2 O8,1.3864,7
8990,Co4 O4 F4,0.0,92
8991,Li2 Mn2 F6,3.4463,63
8992,Li2 Mn1 F4,4.0445,111
8993,Li1 Fe2 C4 O12,0.07040000000000002,1
8994,Cr3 Fe3 Te2 O16,0.2963,8
8995,Li4 V8 C8 O32,1.3906999999999998,14
8996,Li4 Fe4 P16 O48,2.5387000000000004,14
8997,Co4 C4 O14,0.6570999999999999,1
8998,Li2 P6 W4 O26,3.8082000000000003,15
8999,Fe13 Cu5 O24,0.0,1
9000,Li13 Mn2 O12,0.0,1
9001,Li4 Nb3 V3 Co2 O16,0.0,1
9002,Li3 Co4 O8,0.0,166
9003,Na8 Li4 V4 P4 O24,2.343,14
9004,Li7 Co1 O3 F3,2.4040000000000004,1
9005,Li6 Co2 O4 F2,2.0702,2
9006,Li6 Mn6 Ni2 O16,0.3628,9
9007,V18 O42,1.1608,159
9008,Li6 V2 O6 F4,2.5993000000000004,1
9009,Li10 Fe1 Co9 O20,0.11459999999999981,1
9010,Li12 Mn4 F20,4.7264,76
9011,V6 O2 F14,1.1207,6
9012,Li2 V2 Si8 H4 O24,1.7726000000000002,2
9013,V4 O2 F8,1.6563999999999999,1
9014,Li8 Fe1 Co3 O8,1.9239,1
9015,Li8 Cr4 O12,0.6244999999999998,1
9016,Li2 Cr4 O8,0.0,2
9017,Li12 V8 O16 F8,0.3517999999999999,8
9018,Li4 Mg22 W24 O96,3.4156,6
9019,Li4 V2 O4 F2,0.9658999999999995,8
9020,Li1 Cr2 C4 O12,0.667,1
9021,Li8 Mn16 F56,0.8189,1
9022,Li20 Ti4 V12 O32,0.6277999999999997,19
9023,Li4 Mn4 O4 F8,1.3963999999999999,2
9024,Li8 Sn16 P16 O60,2.8943999999999996,15
9025,Mn3 Co1 Sn2 P6 O24,0.0,146
9026,Li20 Co16 O32,0.6114999999999999,1
9027,Co6 O9 F3,0.0,5
9028,Li4 Mn1 O1 F4,2.4416,87
9029,Ti12 Co6 O32,0.7956000000000001,4
9030,Li4 V4 O8 F8,2.6761999999999997,14
9031,Li12 V4 O10 F4,1.2772999999999999,1
9032,Li4 V4 F14,0.3709999999999999,2
9033,Li12 V2 O8 F2,2.3204000000000002,4
9034,Ba4 Ca8 I24,3.0888999999999998,117
9035,Li12 Co12 P12 O48,0.0009999999999998899,181
9036,Li4 Mn4 P4 O16,3.2264,198
9037,Cu8 P8 O24,0.8381999999999996,14
9038,Li4 Mn4 F16,2.8769,33
9039,Li7 Mn1 O5 F1,1.2879,1
9040,Li4 Mn8 O12 F4,1.1188000000000002,4
9041,Mn4 Fe2 O12,0.0,64
9042,Li4 Mn3 Co2 Te3 O16,0.16389999999999993,1
9043,Li6 Mn4 O2 F10,2.1431000000000004,1
9044,Li14 Mn2 O6 F6,2.7495,1
9045,Li3 Mn1 Si2 O7,1.1607,1
9046,Li3 Co2 Si2 O8,0.6373,5
9047,V3 Si6 O18,1.8442999999999998,2
9048,Cr5 Si4 O14,0.6274000000000002,2
9049,Li4 V4 F12,2.3717,15
9050,Li24 Sb4 S8,1.0837000000000003,14
9051,Li4 V2 C4 O12,3.0338,4
9052,Li8 Cr1 Fe3 O12,0.0,3
9053,Na2 Pr2 P2 C2 O14,0.1574000000000001,4
9054,Mn4 O2 F6,0.0,7
9055,V6 H8 N2 O16,2.1017,11
9056,Na2 Sb2 P2 C2 O14,0.0,4
9057,Li4 Sm2 P2 C2 O14,4.6370000000000005,11
9058,Ba8 Y4 Br28,3.3024000000000004,62
9059,Li14 Bi2 B4 O16,2.3868,12
9060,Ba4 Y4 I20,2.6641999999999992,4
9061,Na2 Sb2 As2 C2 O14,0.0,4
9062,Ba4 Y10 Cl38,4.269299999999999,14
9063,Bi20 B4 O40,0.01890000000000036,14
9064,Eu1 Y1 O2,0.0,166
9065,Li8 Cu4 As4 O16,1.0013,14
9066,Na12 Bi4 As2 C8 O32,0.0,203
9067,Li4 Cu4 P4 O16,0.20250000000000012,33
9068,Li4 Fe2 B2 O8,1.3316,12
9069,Li6 Mn2 P2 C2 O14,3.6578999999999997,2
9070,Li4 Mn5 Cu1 O12,0.3304,1
9071,Mg2 Fe4 O10,0.0,63
9072,Cr2 Fe2 O8,0.12550000000000017,63
9073,Li4 V2 B2 O8,2.0451,31
9074,Li6 Ti2 B4 O12,0.6219000000000001,2
9075,Li12 B8 Sb4 O24,2.7077,14
9076,Ho8 Zr8 O28,4.0204,4
9077,Li4 Ti3 Fe3 Co2 O16,0.0,8
9078,Ag11 Hg9,0.0,156
9079,Li8 Mn8 P8 O28 F8,2.8465999999999996,60
9080,Rb2 Li4 Cr4 B6 O18,2.0057,13
9081,Li4 Mn3 Nb1 V2 P6 O24,0.47599999999999953,1
9082,Li2 Cr20 O30,0.20350000000000001,64
9083,Ce4 W8 O32,1.7063,198
9084,Li5 Ti2 Cu5 O12,0.0,5
9085,Li4 Cr3 Co5 O16,0.0,1
9086,Ti3 Cr3 Sb2 O16,0.7077999999999998,1
9087,Ti3 Mn3 Cr2 O16,0.8502999999999998,8
9088,Li4 Nb5 Cr3 O16,0.04290000000000038,8
9089,Eu8 Y8 O20,0.0,3
9090,Li8 Fe18 O36,0.0,1
9091,Li4 Ti1 Mn3 O8,0.21639999999999993,1
9092,Mn5 Cr2 O12,0.2290000000000001,5
9093,Li2 V4 Ni2 O12,0.0,15
9094,Li4 Sn2 B2 P2 O14,2.7306999999999997,11
9095,Mn3 Fe2 Sb3 O16,0.37849999999999984,8
9096,Li2 Zr4 O8,0.0,227
9097,Mn3 V2 O10,0.33929999999999993,2
9098,Mn3 Sn3 Te2 O16,0.0,8
9099,Li40 Cr8 O32,1.5454,61
9100,Cr6 O8,0.9663000000000004,15
9101,Li4 Mn5 Fe1 O12,0.0,12
9102,Ta8 Be4 O24,3.3709999999999996,62
9103,Li4 Zr4 P6 O24,0.1670000000000007,15
9104,Mn5 Fe3 O16,0.0,8
9105,Li3 V3 Co1 O8,0.8013999999999997,2
9106,Co8 O4 F12,0.0,65
9107,Li2 V4 Si4 O16,0.8687,17
9108,Co8 O8 F8,0.0,6
9109,Li16 Cr8 O32,2.4691,7
9110,Li4 Mn4 Fe2 O12,0.0,64
9111,Li2 Ti3 Co1 O8,0.9994999999999994,166
9112,Cr2 Co4 O12,0.6375000000000001,64
9113,Li4 Mn3 Cu1 Ni2 P6 O24,0.028799999999999937,1
9114,Li4 Cr6 P10 O36,0.845,15
9115,Li4 Cr3 Co2 Sn3 O16,0.2298,1
9116,Li4 Ti2 Nb3 Ni3 O16,0.0,8
9117,Li4 Fe4 Si24 O60,0.0,64
9118,Li3 V4 Fe1 O8,0.6304999999999996,12
9119,V4 O8,0.8155000000000001,74
9120,Li2 Mn1 V5 O12,0.0,5
9121,Zr12 N12 O6,1.5627999999999997,15
9122,Li16 Sb8 S16,1.4659,19
9123,Li4 Mn3 Nb1 Cr2 P6 O24,0.4400000000000004,1
9124,Li4 Ti1 Cu2 Ni3 P6 O24,0.12159999999999993,1
9125,Ti3 Mn3 Sn2 O16,1.2040000000000002,8
9126,V8 O12,1.2369000000000003,14
9127,Li8 Fe4 O8 F4,1.9983000000000002,15
9128,Li8 Fe8 F24,3.1084,86
9129,Li12 Fe4 F20,4.216600000000001,76
9130,Li40 Fe8 S32,0.5967999999999998,61
9131,Li6 Nb3 V3 O16,0.6655,1
9132,Nb8 O20,2.4469,19
9133,Li5 Ti3 Mn2 P6 O24,0.22130000000000027,1
9134,Li3 Fe3 F12,4.311100000000001,5
9135,Mn14 Fe6 O40,0.0,1
9136,Li4 Bi4 S6 O24,1.8644000000000003,15
9137,Li2 Fe2 F6,3.0524,11
9138,Li4 Ti3 V2 Sn3 O16,0.0,8
9139,Li2 Fe4 F14,3.4868,11
9140,Ba24 Y4 Br60,4.0156,14
9141,Li4 Nb1 Fe3 Cu2 P6 O24,0.1402000000000001,1
9142,Li9 V3 F15,2.5404,144
9143,Ba8 Y8 F40,6.6784,14
9144,Ba4 Y10 F38,6.1194,4
9145,Li4 Mn2 Co4 O12,0.8104999999999998,2
9146,Li4 V2 Co3 Sn3 O16,1.2133999999999996,1
9147,Li4 Cr4 P4 O20,0.8471,33
9148,Li10 Cr3 Co2 Ni3 O16,0.0,1
9149,Ta8 Zn16 O36,2.9448000000000003,14
9150,Fe6 O7 F5,0.0,1
9151,Li4 Mn1 Cr2 Fe3 P6 O24,1.1417000000000002,1
9152,B20 Sb4 O40,2.1823,14
9153,Tb8 Zr8 O28,2.5376,138
9154,Gd8 W16 O60,2.8791,14
9155,Li2 Cu10 P4 O16,0.5182000000000002,1
9156,Na2 Cu4 O6,0.0,12
9157,Ba24 Y12 O42,2.6786,14
9158,Ba16 Br24 O4,3.3563,19
9159,Li4 Cu8 P4 O16,0.6551,1
9160,Na3 Nb6 O11,0.0,12
9161,Li8 V16 O24 F24,0.9138999999999999,1
9162,Li6 Mn2 O2 F6,2.3220000000000005,1
9163,Co6 O5 F7,0.06769999999999987,1
9164,Li2 V4 Cr1 Cu1 O12,0.6000000000000001,5
9165,Fe6 O4 F8,0.9697,2
9166,Li8 Fe4 O8 F4,2.0665,9
9167,Li1 Mn4 B4 O12,0.3433999999999999,1
9168,Li4 Mn4 Si4 O16,0.9949000000000003,2
9169,Li4 Mn4 Si4 O16,0.4094,2
9170,Li7 Ti14 O28,0.0,1
9171,Na16 V16 O40,1.1709,14
9172,Li2 Mn6 B6 O18,0.007699999999999818,2
9173,Li2 Fe4 O4 F6,1.6681,1
9174,Li1 Mn2 Cr2 O8,0.6604000000000001,2
9175,Co6 O7 F5,0.0,38
9176,Li2 Mn6 B6 O18,0.4302999999999999,1
9177,Li28 Fe8 O26,2.3295,14
9178,Li4 Nb2 O6,0.0,15
9179,Li4 Fe2 F8,3.3475,1
9180,Li4 Co4 O4 F8,1.1804999999999999,2
9181,Na4 Fe2 O8,1.3696,2
9182,Co8 O12 F4,0.0,12
9183,Li4 Ti3 V2 Cu3 O16,0.054999999999999716,8
9184,Te4 H56 C12 S12 N24 F16,2.2372,14
9185,Na12 Ni4 O12,0.03210000000000002,136
9186,Li4 Mn8 P4 O24,0.6399000000000001,62
9187,Li2 Mn6 B6 O18,0.16779999999999995,2
9188,Li2 Mn2 P8 O24,0.7981,15
9189,Li2 Mn6 B6 O18,0.0,2
9190,Li6 Bi2 P4 O16,3.9466,11
9191,Li2 Mn6 B6 O18,0.0,1
9192,Li20 Cr16 O32,1.0896,19
9193,Li4 Co4 Si4 O16,1.0800999999999998,7
9194,Fe10 O14 F6,0.0,1
9195,Li4 Cr2 P10 O30,1.6743000000000001,9
9196,Li2 Mn8 B8 O24,0.28400000000000003,2
9197,Li2 Mn6 B6 O18,0.15680000000000005,1
9198,Li2 Co4 O4 F6,0.0,63
9199,Li14 Fe10 O2 F30,2.9202,1
9200,K2 V24 O60,0.3667,192
9201,Mn3 V1 Sn2 P6 O24,0.005799999999999805,146
9202,Er1 Th1 Tc2,0.0,225
9203,Br2 Cl2,1.3235000000000001,186
9204,Tm1 Th1 Tc2,0.0,225
9205,Lu2 Tc1 Pd1,0.0,225
9206,Ca12 Sn8 S28,1.7828000000000004,14
9207,Ca8 Sn4 S16,1.6421000000000001,91
9208,Li4 Cu8 F20,0.4065,62
9209,Li14 V2 O8 F4,1.9660000000000002,1
9210,Mn15 O32,0.0,12
9211,O10 Al4 Si2,5.544199999999999,15
9212,Sm2 Mg1 Ru1,0.0,225
9213,Rh3 Pb1,0.0,139
9214,Mn2 Cu6,0.0,194
9215,Mg4 Bi2,0.0,12
9216,Ho2 Mn1 Os1,0.0,225
9217,Ce1 Y3,0.0,139
9218,Zn24 H4 O24,0.0,1
9219,Ag2 Pb6,0.0,194
9220,Cs2 Li1 N1 F6,2.7068,225
9221,K2 S1 Br1 Cl6,0.0,225
9222,Fe10 O14 F6,0.0,6
9223,Si4,1.1825999999999999,139
9224,Mn3 Ga1,0.0,225
9225,Mg2 Co4 O8,0.5904000000000003,141
9226,Ca1 Cr4 O8,0.0,166
9227,Al13 Cu3 Se24,0.0,8
9228,Al13 Cu3 S24,0.0,8
9229,Ca1 V4 O8,0.0,166
9230,Ca2 Co4 O10,0.2712000000000001,59
9231,Ca4 Mn4 Si8 O28,0.5682,15
9232,Ca12 Mn6 Al4 O30,0.0,9
9233,Ca1 La2 Ti2 Cr2 O12,0.5655000000000001,1
9234,Ca1 La2 Fe1 O6,1.6632999999999996,148
9235,Ca6 Sb4 O14,0.0,36
9236,Mg2 Cr2 F8,3.3472,1
9237,Y2 Cu3 W6 O24,0.23309999999999986,1
9238,Mg2 Ag2 F10,0.0,15
9239,Mg4 Fe4 O12,0.0,62
9240,Ca2 Co9 O13,0.0,2
9241,Sr2 Y1 Tl1 Fe2 O7,0.17110000000000003,123
9242,Mg12 Si12 Ni8 O48,0.15110000000000046,230
9243,Zn6 Si8 Ag4 O28,0.5466,15
9244,Zn12 Cr8 Ge12 O48,2.6701000000000006,230