Index,Composition,bandgap,spgN
23269,Te2 Mo1 W3 Se4 S2,0.0,156
23270,Te2 Mo1 W3 S6,0.0,156
23271,Te2 Mo1 W3 S6,0.0,156
23272,Te2 Mo1 W3 Se4 S2,0.0,156
23273,Te2 Mo1 W3 Se4 S2,0.0,156
23274,Te2 Mo2 W2 Se4 S2,0.0,156
23275,Te4 Mo3 W1 Se2 S2,0.0,156
23276,Te2 Mo1 W3 Se4 S2,0.0,156
23277,Li1 Mg6 Ti1 O8,0.0,123
23278,Li1 Y1 Mg6 O8,4.0027,123
23279,Mg14 Cr1 Ni1 O16,0.06259999999999977,123
23280,Mg14 Cr1 Ni1 O16,0.3653999999999993,47
23281,Mg14 Cd1 Fe1 O16,2.2145,123
23282,Ca1 Mg14 Fe1 O16,0.0,123
23283,Mg14 Al1 Co1 O16,0.9659999999999993,47
23284,Mg30 V1 Sn1 O32,1.9945000000000004,123
23285,Mg30 Co1 Bi1 O32,1.3708,123
23286,Mg30 Co1 Sn1 O32,0.5192999999999994,123
23287,Y1 Mg30 V1 O32,0.41960000000000086,123
23288,Y1 Mg30 V1 O32,0.42689999999999984,123
23289,Mg30 Al1 Cd1 O32,0.3163,123
23290,Mg30 Ti1 Al1 O32,0.0,123
23291,Mg6 Bi2,0.0,194
23292,Mg3 Bi3,0.0,166
23293,Na1 Mg30 Si1 O32,0.42680000000000007,123
23294,Li1 Hf1 Mg30 O31,0.10309999999999953,99
23295,Li1 Mg30 B1 O32,4.2509,123
23296,Li1 Mg30 Si1 O32,0.39590000000000103,123
23297,Mn8 Zn4 P8 O36,0.0,62
23298,Ho2 Mg2 Fe4 O12,0.0,31
23299,Ca2 Ho2 Co4 O12,0.0,7
23300,Mg8 Si16 Sn8 O48,3.1294000000000004,61
23301,Ca8 Si16 Ni8 O48,3.5985,61
23302,Zn2 Mo4 O14,3.6986999999999997,4
23303,Mg4 Cr4 As8 O28,1.201,14
23304,Mg4 Ti4 Ge8 O24,1.8319999999999999,14
23305,Mg2 Bi4 O10,0.0,63
23306,Ca4 Sn4 Ge8 O24,1.8659,14
23307,Mg4 Ni4 Sn4 P8 O36,3.0102,2
23308,Al2 Fe2 W4 O16,1.5001999999999995,13
23309,Ge4 Mo2 O12,1.6082,15
23310,Zn4 Ni4 Sn4 P8 O36,2.7112000000000003,11
23311,Mg2 Mn6 P8 O28,3.4299,14
23312,Zn2 Co6 P8 O28,2.2743,14
23313,Ti2 Zn2 Ni2 P6 O24,0.0,161
23314,Ti2 Zn2 P6 W2 O24,0.7962000000000002,161
23315,Ca4 Ni4 Bi4 O20,1.0012999999999999,14
23316,Mg2 Cu4 O8,0.0,160
23317,Ba4 Mg2 Cu2 Sb4 F28,0.8667,1
23318,Co2 P8 O24,0.0,2
23319,Sr4 Y2 Ga2 Ni4 O14,0.4474,5
23320,Zn2 Cr2 P2 O10,1.5747999999999998,1
23321,Ca2 Fe2 Si2 O10,0.0,2
23322,Mg2 Ti1 W1 O6,1.6436000000000002,1
23323,Mg2 Ni4 O8,0.0,63
23324,Mg2 Ta4 O12,3.0904,31
23325,Ca2 La2 Cr2 W2 O12,2.1252000000000004,7
23326,Ba6 Y3 Co6 F33,0.20530000000000004,145
23327,Tb1 Hg2,0.0,12
23328,Gd2 Br2,0.0,164
23329,Sr5 Ca3 Fe1 Co7 O24,0.0,8
23330,K4 Na4 W8 O24,0.0,123
23331,Ba2 Sr6 Co5 Cu3 O24,0.0,3
23332,K4 Na4 Mo7 W1 O24,0.0,99
23333,Sr24 Ca8 Co20 Cu12 O80,0.0,1
23334,Sr8 Ca24 Ti8 Mn24 O80,0.0,1
23335,Sr3 Ca5 Fe5 Co3 O24,0.0,1
23336,Ba8 Sr24 Co20 Cu12 O80,0.00649999999999995,1
23337,Mg1 Ti1 H4,0.0,123
23338,B12 O36 Er12,5.131399999999999,2
23339,Cr6 As2 C2,0.0,63
23340,Co3 Ni3 As3,0.0,189
23341,Ni2 P2 Se6,0.0,12
23342,Te2 Mo2 W2 Se4 S2,0.27760000000000007,156
23343,Li2 Sm2 Sn4,0.0,63
23344,Mg4 Sn8,0.0,12
23345,Sr8 Mg4,0.0,63
23346,Mg8 Zn4,0.0,63
23347,Mg5 Zn1,0.0,187
23348,Mg3 Zn1,0.0,221
23349,Mg1 Ga1,0.0,187
23350,H2 C2,3.091,164
23351,C2 Yb1,1.0157,139
23352,Y2 Ta6 O18,2.3748,12
23353,Pr2 In2 Co4,0.0,51
23354,Ti1 Cr2 Te4,0.0,1
23355,V4 Cr1 Fe1 O12,1.2006000000000001,5
23356,Tl1 In1 O2,0.7181000000000006,166
23357,Ti1 Mn3 Cu2 P6 O24,0.008099999999999996,146
23358,Sn12 P12 O42,2.8168,1
23359,Li4 Co4 P16 O48,0.17259999999999986,4
23360,Cr2 P8 O24,0.09689999999999999,15
23361,Na4 Fe20 O32,1.6551999999999998,212
23362,U1 Al4 Fe8,0.0,139
23363,Ni4 S8,0.0,62
23364,Tl1 Mo6 Se8,0.0,148
23365,Nd3 Al12,0.0,44
23366,K4 Mo2 S2 O6,3.1277999999999997,12
23367,Cu2 Ag1 S2 O10,0.07600000000000007,12
23368,U4 Co4 S12,0.0,33
23369,K2 Na1 Y1 I6,3.1298999999999997,225
23370,K3 Tm1 Cl6,4.5784,225
23371,K2 Na1 Nd1 Cl6,4.6993,225
23372,K2 Li1 Nd1 Br6,3.973,225
23373,K2 Ag1 Mo1 Br6,0.5131,225
23374,K2 Ce1 Ag1 Cl6,0.2679,225
23375,K2 Na1 Ce1 Br6,0.29610000000000003,225
23376,K2 Li1 Y1 I6,2.9702,225
23377,Rb2 Hg1 Rh1 F6,0.0,225
23378,K2 Rb1 Ga1 F6,5.5905000000000005,225
23379,K3 In1 Cl6,3.5526,225
23380,Rb2 As1 Au1 Cl6,0.12569999999999992,225
23381,Cs1 Rb2 As1 Br6,2.9234999999999998,225
23382,K2 Na1 Au1 F6,0.5919,225
23383,K2 Ga1 Cu1 F6,0.19340000000000002,225
23384,Cs2 Rb1 Nb1 F6,0.0,225
23385,K2 Al1 Ag1 Cl6,2.2252,225
23386,Tb1 K2 Cu1 Cl6,2.3155,225
23387,K2 Sb1 Au1 Br6,0.0,225
23388,Cs2 Cu1 Au1 F6,0.0,225
23389,Cs2 Tl1 Hg1 I6,0.0,225
23390,Rb2 Hg1 Au1 Br6,0.0,225
23391,Rb3 Tl1 Cl6,2.4291,225
23392,K1 Rb2 La1 Cl6,4.6475,225
23393,K1 Rb2 As1 I6,2.0398,225
23394,Zn6 Sn4 O14,1.9487000000000005,36
23395,K2 Sr1 Cl4,4.7246,166
23396,Cu1 Pb2 Cl2 O2,0.0,139
23397,Ba2 Cu2 S4,0.0,63
23398,Ta1 Rh1 O4,0.0,65
23399,Nd8 Mg4 Ti6 Si8 O44,2.4326,14
23400,Na7 Li4 Yb5 C12 O37,0.0,8
23401,Li2 Mn1 Co1 O4,0.6114999999999999,2
23402,Li2 Mn1 Co1 O4,0.6005000000000003,2
23403,Li4 Mn2 O6,0.8576000000000001,12
23404,Li4 Mn2 O6,0.8438000000000003,2
23405,Li6 Mn2 Co2 O10,1.1229999999999998,2
23406,Li5 Mn1 Co2 O8,0.0,2
23407,Li8 Co6 O14,0.8200999999999996,2
23408,Li8 Co6 O14,0.7684000000000002,2
23409,Li7 Co5 O12,0.4180999999999999,10
23410,Li5 Mn3 O8,0.09109999999999996,12
23411,Li8 Mn2 Co4 O14,0.5819999999999999,1
23412,Li8 Mn2 Co4 O14,0.9220999999999999,1
23413,Li8 Mn2 Co4 O14,0.9198999999999997,1
23414,Li8 Mn2 Co4 O14,0.5804999999999998,5
23415,Li6 Mn3 Co1 O10,0.3906999999999998,1
23416,Li7 Mn2 Co3 O12,0.8506,1
23417,Li7 Mn4 Co1 O12,0.1875,2
23418,Li7 Mn4 Co1 O12,0.41880000000000006,1
23419,Li7 Mn4 Co1 O12,0.4175,6
23420,Li7 Mn4 Co1 O12,0.11149999999999993,8
23421,Li7 Mn5 O12,0.0,10
23422,Li9 Co7 O16,0.653,2
23423,Li9 Co7 O16,0.5004,12
23424,Na4 Sb8 O22,1.8132,12
23425,Li1 Nb1 Co3 P6 O24,0.0,146
23426,Li8 Mn8 P16 O56,0.5409999999999999,1
23427,Li4 Fe8 F20,3.1736999999999997,1
23428,Li18 Fe8 B16 O48,0.0,1
23429,Li6 Ti1 Mn3 P6 O24,0.05569999999999986,1
23430,Li12 Mn2 V6 P12 O48,0.40659999999999985,1
23431,Li12 Mn2 V6 P12 O48,0.4262999999999999,1
23432,Li5 V6 O5 F19,0.0,1
23433,Li12 Mn2 V6 P12 O48,0.42090000000000005,1
23434,Li5 Co3 Sb2 O10,0.20889999999999986,2
23435,Li8 V4 P6 O24,0.0,15
23436,Li16 Co4 O16,0.9201999999999999,6
23437,Li12 Mn4 V4 P12 O48,0.14239999999999986,1
23438,Li12 Mn4 V4 P12 O48,0.4121999999999999,1
23439,Li3 Fe8 B8 O24,1.6534000000000002,1
23440,Li12 Mn4 V4 P12 O48,0.21229999999999993,1
23441,Li3 Fe2 Si2 O8,0.008000000000000007,5
23442,Li3 Co2 Si2 O8,0.4434999999999998,5
23443,Li6 Fe4 O12,0.0,15
23444,Li8 V8 F28,0.0,4
23445,Li4 Mn6 P10 O36,0.5757,15
23446,Li8 Mn8 P12 H12 O48,3.7306999999999997,14
23447,Li19 Mn8 C16 S4 O64,0.0948,1
23448,Li10 Cr3 Fe3 Ni2 O16,1.6726999999999999,1
23449,Li8 Fe16 O32,0.0,1
23450,Li8 Cr12 Cu4 O32,0.4288000000000003,1
23451,Fe4 Sn4 O12,0.7389999999999999,62
23452,Fe18 O18 F18,0.3456999999999999,6
23453,Fe18 O18 F18,0.12509999999999977,6
23454,Ga2 Pt2 O4,0.0,194
23455,Cs8 Ce4 O12,1.8820999999999999,64
23456,Cr2 Fe3 Sn1 P6 O24,0.0,146
23457,Cs8 Ce4 O12,1.8938999999999997,1
23458,Al4 In4 O12,2.2750999999999992,62
23459,Ag1 Cl1 O3,2.7243000000000004,160
23460,U4 Sb8 F60,0.20690000000000003,14
23461,Tl12 Sn6 Ge18 O54,2.4913999999999996,165
23462,Sr1 H16 O10,3.3884,1
23463,Sb8 F48,0.03200000000000003,19
23464,O8,0.4641,15
23465,Ba2 Sb4,0.0,12
23466,Ce2 Ga2 Fe15,0.0,166
23467,Ba6 Na2 Si4 O16,0.17559999999999998,63
23468,B4 P8 Pb8 O36,0.026500000000000412,14
23469,Al10 O16,0.0,186
23470,Ag8 Te2 P4 O28,0.04970000000000008,14
23471,Ac1 Dy3,0.0,221
23472,Ac3 Tm1,0.0,139
23473,Ac6 Cd2,0.0,194
23474,Al2 Au6,0.0,194
23475,Ba2 Fe2 O5,0.0,123
23476,Cd1 Sn3,0.0,139
23477,Ga3 Sn1,0.0,221
23478,Ga6 Ag2,0.0,194
23479,Eu3 Mg1,0.0,225
23480,Eu2 Ag6,0.0,194
23481,Ga2 Pb6,0.0,194
23482,Ge1 Au3,0.0,225
23483,Hf3 Ga1,0.0,139
23484,K2 Bi2 O5,0.0,123
23485,K3 Cd1,0.0,139
23486,K1 Zr1 O3,0.0,221
23487,La3 Sc1,0.0,139
23488,K1 Cl3,0.0,139
23489,Li20 Ni8 O18,1.6628,137
23490,Li6 Yb2,0.0,194
23491,Li2 Yb6,0.0,194
23492,Mg16 Al12 Pd1,0.0,160
23493,Mg16 Al12 Sb1,0.0,160
23494,Mg1 S3,0.0,25
23495,Na2 Yb6,0.0,194
23496,Nd1 Ga1 Au2,0.0,225
23497,Sb2 Pd6,0.0,194
23498,Sm2 Ni1 Ru1,0.0,225
23499,Th3 Mg1,0.0,139
23500,Sr1 Pd1 O3,0.0,221
23501,Tm1 Co2 Sn1,0.0,225
23502,Zr6 Bi2,0.0,194
23503,K2 Na2 W2 O4 F8,3.1601999999999997,129
23504,Li2 La4 Re2 O12,0.0,14
23505,Nd2 Fe15 Co2,0.0,166
23506,Mn8 Cl4 O12,0.1944999999999999,62
23507,Pr2 Fe17 N3,0.0,166
23508,Hg4 Br4 O16,0.0,57
23509,Dy6 Ga2 Co2 Se14,0.09700000000000042,173
23510,Ce6 Al2 Cd2 S14,0.014299999999999535,173
23511,Mg12 O12,3.1303999999999994,72
23512,Er6 Be2 Cr2 S14,0.5696000000000003,173
23513,Os10 W20,0.0,136
23514,Li4 Sc2 P4 O16,0.3212,14
23515,Mg2 Si2 H12 O12,5.5147,4
23516,In3 Co20 B6,0.0,225
23517,H12 C4 O12,3.409,14
23518,Yb4 Sb8 S16,1.0617,62
23519,Ti18 Al4 Pt8,0.0,136
23520,Na8 Nd4 Ge4 O20,0.5194999999999999,62
23521,Yb8 H96 C24 N72,0.0121,201
23522,Y6 Ge26 Pt8,0.0,161
23523,Sm6 Ge26 Pt8,0.0,9
23524,Si12 Sb4 H72 C24 O6,3.3647,2
23525,Rb4 B8 Se12 O40,0.14570000000000002,19
23526,H104 Os4 C24 S24 Br12 N48 O4,0.14159999999999995,56
23527,Mg17 Si20 O60,0.12260000000000004,12
23528,Si12 Bi4 H108 C40 Cl8,3.1071,2
23529,P4 H40 C8 N4 O16,5.5411,7
23530,Ca4 Al4 Fe2 Si8 B2 O32,1.1658,2
23531,Np2 H56 C24 N24 O36,0.2971999999999999,15
23532,Ho8 B12 O32,0.10220000000000029,60
23533,La4 I12 O38,0.6452999999999998,7
23534,Na2 V10 H36 N4 O38,2.4459,2
23535,Pr2 H32 N14 O38,3.4458,9
23536,K4 Ca10 S12 O50,0.40879999999999983,15
23537,Rb3 V3 P6 O24,1.1972,2
23538,Li4 Zn4 Si12 H132 C48,3.3147,14
23539,K4 Mn2 P4 H4 O16 F4,1.409,2
23540,B12 Pb6 O25,1.4263,166
23541,Yb3 Ga24 Cu12,0.0,139
23542,B4 H48 N16 F12,4.8358,33
23543,Rb7 Gd1 Fe6 P8 O34,0.6833,2
23544,Y8 V4 O20,1.5909000000000004,15
23545,Li2 Cu4 Si24 H162 C54,2.7035,2
23546,Nb8 Ag4 O22,2.1823,9
23547,Dy4 Ga6 Fe28,0.0,63
23548,K20 Hf12 O4 F68,1.0042,62
23549,Cs4 Zn2 Ag2 C10 S10 N10,3.0233,31
23550,Rb6 Se6 O24,0.42110000000000003,2
23551,Tm4 Ga4 Fe30,0.0,194
23552,Ho4 Co24 Ni10,0.0,194
23553,Mn8 Pb8 O20,0.0,62
23554,Na12 Ni6 B18 P12 H6 O76,0.4910000000000001,173
23555,Eu2 Dy1 Ta1 O6,0.5418000000000003,225
23556,K3 Tm1 F6,5.8586,225
23557,Nd1 Ta2 O6,0.0,47
23558,Dy2 Ge6 Pt1,0.0,38
23559,Er2 Ge6 Pt1,0.0,38
23560,Pb2 I1 O2,0.0,139
23561,Fe2 Ni2 Ge2,0.0,194
23562,Zn7 Mo6 O24,1.3356,2
23563,Tm2 Ta10 Ag4 O30,2.5922,127
23564,V2 H6 C2 O10,2.6766,2
23565,U2 Ge2 I12,0.0,163
23566,U6 Ga4 Si6,0.0,108
23567,Tl2 Cr1 F6,0.0,225
23568,Th6 Mn23 H44,0.0,225
23569,Sr2 Ca6 Lu18 O36,0.0,173
23570,Rb3 Sb1 F6,3.678,2
23571,Nd4 Ni2 Ru2 O12,0.0026000000000001577,14
23572,Nb6 Co10 B4,0.0,127
23573,Rb10 Pb12 Cl32,0.02079999999999993,127
23574,Np8 Mo16 O64,0.1609999999999996,61
23575,Na3 Tb1 V2 O8,3.4467,164
23576,Na10 S6 Cl2 O24,0.0,176
23577,Mn3 Ga1,0.0,139
23578,Mn4 H12 C8 N36 O4,3.2834,14
23579,La1 Co3 Ni2,0.0,191
23580,K3 Se2 O8,0.0,164
23581,K2 Na1 Co1 N6 O12,2.432,202
23582,Er6 Cu22 Si8,0.005600000000000271,194
23583,Mn40 Al116,0.01720000000000077,33
23584,Ce2 Co10 H6,0.0,66
23585,Ca1 Y4 Sb3 O14,0.0,12
23586,Ce16 Cd4 Ni4,0.0,216
23587,Ca4 La2 Ga2 Cu4 O14,0.0,46
23588,Ca4 Al6 Si6 O26,0.006199999999999761,11
23589,Ba4 V4 Cu2 Cl2 O14,1.0268000000000002,100
23590,Ba2 Er1 Zn2 Cu1 O7,0.0,47
23591,Ba2 Ca2 Eu1 Ti3 Cu2 O14,0.0,123
23592,Zn1 Ni4 O5,1.8968999999999996,166
23593,Zn1 Ni4 O5,1.8998,71
23594,Zn1 Ni4 O5,1.9219000000000008,12
23595,Zn1 Ni4 O5,1.9437000000000006,87
23596,Zr4 Mn4 Ga4,0.0,38
23597,Y4 Cr1 S7,0.0,8
23598,Ti2 V2 S4,0.0,26
23599,Ti1 Mn2 V1 As4,0.0,10
23600,U3 Ga8 Cu4,0.0,119
23601,Ti1 B4 Mo1,0.0,191
23602,Ti4 Al4 Ni4,0.0,38
23603,Ti4 Co5 Ni1,0.0,123
23604,Ti12 Cu9 Bi2 O36,0.2942,147
23605,Ta3 Mo3 N4,0.0,99
23606,Sr1 La1 Ta1 Ni1 O6,2.702,216
23607,Sr1 Gd1 Co1 O4,0.9558999999999997,107
23608,Sr1 Ca1 Mn2 O6,0.0,121
23609,Sr2 Ca2 Mn4 O12,0.0,26
23610,Sr6 Co4 Te2 O18,0.14430000000000032,71
23611,Sr2 Ca2 Dy8 Be4 O20,4.0684000000000005,4
23612,Sr4 La2 Mn3 Ir3 O18,0.0,164
23613,Sn1 Bi1,0.0,119
23614,Sm2 Fe3 Ru1,0.0,166
23615,Re4 Pb4 O13,0.0,216
23616,Sb8 Cl2 O11,2.3648000000000002,2
23617,Rb2 U2 O7,1.4695999999999998,6
23618,Rb2 Ta14 Cu6 O42,0.02190000000000003,38
23619,Nd1 Ti1 Fe11 H1,0.0,44
23620,Na1 Eu1 Se2,0.0,123
23621,Na1 Sr12 Ni7 O23,0.9376000000000002,1
23622,Na1 Ce1 S2,0.0,123
23623,Mo6 Se4 S4,0.0,1
23624,Mn1 Hg2 S3,0.0,156
23625,Mn2 Cu2 Se4 O12,0.17410000000000014,14
23626,Mn3 Ni4 Sb1,0.0,166
23627,Mn3 B4 Mo3,0.0,38
23628,Mn2 Fe2 Ni2 O8,0.04190000000000005,74
23629,Mg1 Ta1 N2,0.0,123
23630,Mg6 C4 O14,3.9108,121
23631,Li1 Sm1 Se2,0.058399999999999785,123
23632,Li1 Gd1 W2 O8,3.2166999999999994,82
23633,Li1 Sm1 W2 O8,4.154,82
23634,Li1 La3 Ti4 O12,0.0,139
23635,Li3 Al2 Co1 O6,0.9196999999999997,12
23636,Li2 Co1 Ni1 O4,0.0,12
23637,La1 Dy1,0.0,187
23638,La2 Si3,0.0,44
23639,K2 Ca1 Pr1 O4,0.0,10
23640,Ho4 U1 S7,0.0,8
23641,Ho2 Fe9 Si3,0.0,38
23642,K2 U2 O7,1.4557,6
23643,In4 Ag3 Ge4 Se16,0.0,82
23644,Ho3 Mn3 Ni6,0.0,160
23645,Hf1 In1 Pt2,0.0,123
23646,Hf4 Al4 Rh4,0.0,38
23647,Fe2 Cu1 Rh3 S8,0.13729999999999976,160
23648,Fe12 Ge3 As2,0.0,146
23649,Ga40 Mo8 S1,0.0,12
23650,Fe16 Mo8 N4,0.0,119
23651,Dy4 Cr1 Se7,0.0,8
23652,Er2 Se3,0.3376000000000001,115
23653,Er1 Mn2 Fe4 Sn6,0.0,35
23654,Er2 Si3,0.1203000000000003,25
23655,Eu2 Ga4 Ge8,0.0,63
23656,Cu1 Ni3 Sn2 S8,0.0,44
23657,Cu4 Si1 Ge3 O12,0.0,25
23658,Cu16 Ge2 Se12,0.1722999999999999,9
23659,Er2 Ti12 Cu9 O36,0.3158000000000003,147
23660,Cs1 Sm2 Ti2 Nb1 O10,1.4433999999999996,8
23661,Co1 Cu2 Sn1 Se4,0.0,82
23662,Ce1 Zr1 O4,1.7848000000000006,166
23663,In1 Cu1 Se2,0.00590000000000046,8
23664,Ce1 Pr2 O6,0.0,139
23665,Ce1 Mn1 Cr1 Si2,0.0,119
23666,Ce1 Co2 Si1 B1,0.0,107
23667,Cs2 Mo18 S18,0.0,176
23668,Ca1 Nd1 Cr1 O4,2.2122,107
23669,Ca2 H4 C4 O10,3.4488,5
23670,Ca1 C2,2.664,166
23671,Ca8 Mn4 Al4 O22,0.0,12
23672,Ca4 Mn1 Fe3 Si10 O30,0.026799999999999713,1
23673,Ba1 Nd1 Fe2 O6,0.0,225
23674,Ca8 Al11 Fe1 Si12 O52,0.0,6
23675,Ba1 La2 Co3 O9,0.0,164
23676,Ba2 Ga2 Sn2,0.0,12
23677,Ba4 Nb3 Se12,0.0,2
23678,Ba4 Pr2 Cu6 O15,0.0,69
23679,Al2 Zn1 S4,1.7435,6
23680,As2 P2,0.055600000000000094,12
23681,Ba4 Pr6 Co10 O30,0.0,2
23682,Ag2 Bi2 Se1 S3,0.3573999999999993,44
23683,Ag2 Sn1 Bi1 Se4,0.0,160
23684,C1 N2 Mn1,0.2801,166
23685,Pr1 Pt3,0.0,221
23686,O3 Dy2,4.1995000000000005,164
23687,Sn2 Lu2 Au2,0.0,186
23688,Ga2 Yb1,0.0,191
23689,S2 Sn2,1.1323000000000003,63
23690,P16 Zn4,0.9662999999999995,92
23691,O18 Zn8 Nb4,2.5331,165
23692,Co24 As12,0.0,189
23693,N4 O4 Na8 Mo2,2.2032999999999996,2
23694,O2 Mn3 As2 Sr2,0.0,139
23695,Si16 Yb20,0.0,62
23696,Fe4 As2,0.0,129
23697,Mo6 Se8,0.0,148
23698,Pu1 Sb1,0.0,221
23699,Fe20 Sn4 U4,0.0,62
23700,Ta4 Cu2 O12,0.0,136
23701,C4 O8 Pb2,2.7868000000000004,2
23702,Cl4 Cr2,0.7019000000000002,58
23703,Cu8 Br8,0.16990000000000016,205
23704,Cl1 Rb1,4.7794,221
23705,O12 Ti3 Bi4,1.3813000000000004,139
23706,H2 Cu2,0.5728,186
23707,Cu4 H24 C4 N8 O12,0.5795000000000001,14
23708,H116 C40 N4 Si4 P12 Br4,4.0491,14
23709,Fe1 Bi1 O3,1.7847999999999997,160
23710,O12 Ti4 Fe4,1.4865000000000004,62
23711,O8 Mn4 Ge2,1.3602999999999996,55
23712,C2 Sr1,1.6718,139
23713,Li4 Nb2 P4 O16,0.06540000000000035,14
23714,Li4 O8 P2 Cu2,1.4033999999999995,7
23715,Br56 Bi48,1.4121000000000001,58
23716,N8 S24 Pd4,1.2357,14
23717,Li8 H10 Rh2,0.0,63
23718,O15 Si3 Ca9,3.6959999999999997,160
23719,S8 Cl16,2.0564999999999998,19
23720,Zn1 Bi12 O20,0.0,197
23721,O38 Al20 Si4,3.3810000000000002,36
23722,Cl6 Cr2 Cs2,0.14200000000000035,12
23723,C4 Si12 Cl28,4.005,15
23724,Cu11 Sb3,0.0,38
23725,Co2 P6 O18,0.9667,2
23726,Cr1 P2 O7,0.0,5
23727,O6 Ni1 Sr2 Re1,0.004999999999999893,87
23728,Li6 O32 P8 Ni6,0.0,4
23729,Li3 O24 P6 V3,1.3487,1
23730,Lu16 S24,2.0514,122
23731,S24 Tm16,2.0032000000000005,122
23732,Ag2 S4 Sb2,0.0,74
23733,Ga4 Cu2 O8,0.0,74
23734,F1 La1 O1,4.7503,216
23735,Te3 Hg3,0.47619999999999996,152
23736,Li4 Mn4 O8,0.9377999999999997,15
23737,S8 Sm2 Tb4,0.0,122
23738,Ba7 F3 K3 O27 Ti10,0.038599999999999746,99
23739,N3 Fe17 Nd2,0.0,166
23740,O12 Zn4 Se4,3.4386,62
23741,O64 Zr16 Ce16,1.7423000000000002,198
23742,Li9 O48 P12 Ni9,0.09510000000000007,1
23743,Ba4 Fe8 Se12,0.0,62
23744,O6 V2 Cu2,0.6943999999999999,148
23745,Fe2 Ni4 S8,0.0,227
23746,Ru4 Ti4 Si4,0.0,62
23747,As9 Ga9 O36,1.0653000000000001,1
23748,Cd10 Ho20 S40,1.3568999999999998,8
23749,Fe4 O48 P16,0.6162,62
23750,Li4 Ni4 P8 O28,0.0,14
23751,Co2 P4 O14,0.0,4
23752,Al2 Fe4 O8,0.0,227
23753,Li2 O12 Mn4 Ni2,1.3418,15
23754,Ti1 O6 Zn1 Bi2,1.9356,99
23755,Li1 Co2 O4,0.0,10
23756,Bi2 Pd3 S2,0.0,166
23757,Mg4 Si2 O8,4.587400000000001,164
23758,Ag2 H3 I1 O6,0.6966000000000001,148
23759,Sr4 Cu2 Bi4 O12,0.0,66
23760,Np4 Ag4 Se4 O20,0.07480000000000064,14
23761,Na8 Si8 O20,3.8875999999999995,88
23762,Hg24 Te8 O48,0.6009,230
23763,Fe6 S6 O18,2.2283999999999997,148
23764,K2 Mo24 S28,0.0,163
23765,Nb4 Se8 S4 N8 Cl4 F24,2.1919,14
23766,Na4 Np2 H4 C6 O18,0.1942999999999997,2
23767,P4 H32 C8 N4 O8,5.0127999999999995,14
23768,Fe24 Pb2 O38,1.1258999999999997,194
23769,Mn2 B8 O14,5.0303,63
23770,K2 In2 W4 O16,4.315799999999999,165
23771,Bi4,0.0,11
23772,Ga2 Si4 As2 H48 C16,3.7194000000000003,2
23773,Nd3 Ga1,0.0,221
23774,Zr2 Cl6,0.0,162
23775,Cd4 H64 C16 Br16 N8,3.713,14
23776,U2 Bi4,0.0,129
23777,Cr8 B8 Ir4,0.0,63
23778,Cd4 H32 C8 N4 Cl12,4.0526,14
23779,Ba2 Th2 Br12,2.1637000000000004,51
23780,Er6 I7,0.0,12
23781,Ce20 Si12 N36,0.0,64
23782,Bi4 Rh4 O12,0.4075999999999995,62
23783,Cr2 Fe1 Se4,0.0008999999999996788,12
23784,Mn4 P8 O28,0.5326,1
23785,Np4 Ni4 Sn4,0.0,62
23786,Zn4 H56 C8 N32 Cl16,3.9837000000000002,14
23787,La4 P6 H14 O22,4.4891000000000005,2
23788,Bi4 Br12,2.515,14
23789,Ba2 H8 O12,2.7803,1
23790,Te1 H6 O6,1.9738,1
23791,H20 I4 O24,0.9650000000000001,1
23792,Sr1 H16 O10,3.4569,1
23793,Sr2 H32 O20,3.7903000000000002,9
23794,Sr2 H32 O20,3.092,9
23795,Fe2 H2 O4,1.9233999999999998,11
23796,H16 Pt2 O12,1.9425999999999999,1
23797,Ag3 S1 I1,0.2711999999999999,1
23798,La2 Fe24 O38,0.015499999999999403,63
23799,Ba3 Co10 O17,0.0,166
23800,K4 Ag4 C4 O12,1.5687000000000002,1
23801,Ba14 Fe12 S28,0.0,15
23802,Li4 Nb2 P8 O26,0.40549999999999997,2
23803,Ge5 Te8 As2,0.0,12
23804,Tb4 Pb2 S8,2.0344000000000007,122
23805,Ag6 S2 I2,0.3197000000000001,4
23806,Ag6 S2 I2,0.3738999999999999,1
23807,Eu2 Er4 S8,0.4770000000000003,122
23808,Ag9 Te4 Br3,0.0,1
23809,H4 I4 O16,1.5685,14
23810,Rb2 Cr2 I6,0.0,12
23811,Os2 Cl2 F16,0.47609999999999997,2
23812,Bi34 Ir3 Br37,0.0,1
23813,Ce12 Ge18 B4 O60,0.0,14
23814,Ca20 Pr8 Cu48 O82,0.0,66
23815,Yb12 Ce12 S36,0.26620000000000044,62
23816,Ti1 Nb2 Zn1 Pb4 O12,0.22969999999999935,8
23817,Sr2 La6 Ti1 Cu3 O16,0.0,2
23818,Ho16 Se24,1.6135999999999995,122
23819,Cu14 I19,0.0,8
23820,Co34 Se40,0.0,2
23821,Cu8 Sn30 S64,0.0,8
23822,Tc4 Pb4 O12,0.0,5
23823,Co2 Bi11 O20,1.0501000000000005,1
23824,Ni1 H16 C4 S4 N8 Cl2,0.5148000000000001,79
23825,Na2 H6 C4 O10,3.1616999999999997,2
23826,Ag8 H16 S8 N8 O24,2.8033,61
23827,Co6 P8 O28,0.0,2
23828,Co10 P16 O56,0.030799999999999994,2
23829,Li2 Cr2 P10 O30,0.0912,7
23830,Ti9 Fe11 O30,1.3130000000000002,1
23831,Ca2 Zn4 H20 O16,3.303,14
23832,Na4 Zn1 P6 H12 O24,4.552,2
23833,K12 Zr4 H4 S4 O20 F20,0.0,36
23834,Fe6 O8,0.5663999999999998,1
23835,Al9 Fe2 Si4 H1 O24,3.6530999999999993,12
23836,Ba4 La6 Mn5 In5 O30,0.14010000000000034,1
23837,Ca2 Mn2 Si4 H6 O17,0.16849999999999987,5
23838,Co8 P8 H24 O32,2.8362,29
23839,Nb2 O4 F2,1.6800000000000002,38
23840,I6 Cl6 O6,1.0255999999999998,148
23841,Nb2 N2 O2,0.9874,109
23842,Li2 Cu1 Si1 O4,0.0,121
23843,Ba2 Ca1 I6,3.4758,162
23844,Bi2 Ru4 O14,0.0,24
23845,Li4 Sn4 P4 O16,3.4982999999999995,19
23846,Ba2 Y2 Br10,3.1242,15
23847,Tm4 Ti2 O10,3.0448000000000004,63
23848,Lu4 Ti4 O12,0.0,62
23849,Zr6 N4 O6,2.7098,36
23850,Ca2 Be6 O8,3.9114999999999998,190
23851,Ba4 Y4 F20,6.618500000000001,4
23852,Sr4 Ca4 I16,3.7126,14
23853,Li4 Te4 O12,2.1414999999999997,34
23854,Lu2 Al2 O6,3.6479,194
23855,Ba2 Na4 O4,1.5152,36
23856,Tm4 Ti4 O12,0.0,33
23857,Li3 Ti4 O8,0.0,6
23858,Na1 Cu3 O4,0.0,1
23859,Li10 Fe2 S8,0.5527,59
23860,Sr4 Ca2 I12,3.7062999999999997,1
23861,Li4 Sn4 P4 O16,3.0295,19
23862,Ba2 Y2 F10,6.4944,15
23863,Li2 Ti2 Si8 O20,0.38400000000000034,13
23864,Li8 Sn4 P8 O28,3.1648,14
23865,Mg7 Cu17 O24,0.0,25
23866,Li8 Sn4 P8 O28,3.3434000000000004,1
23867,Li8 Cu4 P16 O48,0.3258000000000001,14
23868,Li2 Sb2 P8 O24,4.3011,15
23869,Li2 Bi2 P8 O24,4.4313,4
23870,Yb1 Bi12 O20,0.0,197
23871,Li2 Sb2 P8 O24,4.0868,4
23872,Li2 Sb2 P8 O24,4.1998999999999995,15
23873,Li4 Bi4 P8 O28,4.0556,14
23874,Li2 Sb8 P14 O48,3.3890000000000002,2
23875,Sr2 Cd4 H32 Cl12 O16,3.742,2
23876,Li2 Bi1 F5,4.0571,79
23877,Li2 Ti3 O6,0.0,12
23878,Yb2 B6 O12,0.0,15