Index,Composition,bandgap,spgN
19602,Si72 O144,5.3103,47
19603,Ta2 Sn4 S4,0.0,194
19604,Tb1 Eu2 Ta1 O6,0.5703999999999994,225
19605,Nd2 Ge6 Pt1,0.0,38
19606,Sr2 Lu1 U1 O6,0.9136999999999995,225
19607,Ce2 C2 O2,0.0,12
19608,Rb1 Fe1 Cl3,0.0,221
19609,Cs3 Au1 F6,0.9563000000000001,2
19610,Ce1 Cd2 Cu1,0.0,216
19611,Sb1 Pb1,0.0,225
19612,Cu2 Sn2 Pd4,0.0,123
19613,U1 Sb1 Pd2,0.0,225
19614,Y6 Ni22 Ge8,0.0,194
19615,Ti8 Te8 O20 F20,0.0,62
19616,Rb4 S4 O16,0.009700000000000042,14
19617,Rb6 Zn6 Mo8 O32,0.0,220
19618,Rb4 Na4 Al6 Si6 O24,0.0,31
19619,P4 W12,0.0,121
19620,Nb2 Fe2 Se10,0.0,11
19621,Na15 Ca12 Si18 O54,0.0,144
19622,Mn8 V12 Ag12 O48,0.0,230
19623,Ge24 As22 I8,0.0,223
19624,Dy6 Cu22 Si8,0.06639999999999979,194
19625,Cs1 Sb4 F13,4.8268,87
19626,Cr4 Cu11 O30,0.0,2
19627,Be6 Al4 Si12 H2 O36,4.8329,192
19628,C32 N8 Cl24,2.1652,14
19629,Zr2 Ti2 Cr4 Fe4,0.0,8
19630,Zr4 H32 C8 S4 O8 F16,4.5396,41
19631,Yb1 Ag1 S2,0.0,123
19632,Zn1 Ni4,0.0,166
19633,Zr4 Cr6 Si2,0.0,194
19634,Yb4 Al4 Ni4,0.0,38
19635,Y1 Ho1 C4,0.0,123
19636,Y4 Sc1 Si10,0.0,191
19637,Zr6 Ga9 Co3,0.0,1
19638,V2 As4 H8 O18,2.6041999999999996,108
19639,V3 P4 S12,0.0,5
19640,Ti2 As4 W3,0.0,8
19641,Ti4 Fe2 B4 Ru8 Rh2,0.0,10
19642,Th2 Co1 Si3,0.0,187
19643,Tb2 Al2 Cu2,0.0,74
19644,Tb4 Cu7 Sn11,0.0,99
19645,Sr1 Nd2 Cu2 O6,0.0,107
19646,Sr1 La3 Mn1 Cu1 O8,0.0,38
19647,Sr1 La4 Cr5 O15,0.0,12
19648,Sr3 Ir2 O7,0.0,12
19649,Sr3 Ca1 V4 O12,0.0,47
19650,Sr4 Mn2 Nb4 Bi4 O23,0.0,12
19651,Sr2 Mn1 Cr1 O6,0.0,47
19652,Sr2 La2 Mg1 Ru1 O8,0.0,123
19653,Sr2 La6 Cu3 Ir1 O16,0.0,12
19654,Sr2 Fe1 Mo1 N1 O5,1.3058999999999998,8
19655,Sr10 Cu5 Mo3 W2 O30,0.0,2
19656,Sn3 Sb1 Se2 I5,0.8885999999999998,8
19657,Sm2 Fe17 C1 N1,0.0,2
19658,Rb2 Na4 Al6 Ge6 O26,0.2874,7
19659,Pr2 Ge3,0.0,44
19660,Ni1 Pd1,0.0,166
19661,Nd1 V2 Fe5 Co5,0.0,44
19662,Nd6 Al2 Si10 N20 O2,2.9632000000000005,7
19663,Nd2 Fe20 Si2 C1,0.0,2
19664,Nb6 Co18,0.0,164
19665,Nb3 Ir1 Se8,0.051000000000000156,12
19666,Nb12 Al3 Ga1,0.0,47
19667,Nd12 Si6 Ni4,0.0,6
19668,Na1 Yb3 Ti2 Sb2 O14,0.0,12
19669,Na2 V4 O8 F2,1.6095000000000002,31
19670,Na8 Tb4 O12,0.0,15
19671,Na1 V2 Se4,0.0,160
19672,Mn1 Ge1 Te2,0.0,123
19673,Mn4 V1 Se5,0.0,166
19674,Mn3 Zn1 Fe8 O16,0.0,160
19675,Mn3 Ni3 Sn2,0.0,160
19676,Mg6 Al6 Cu6,0.0,166
19677,Mg3 Cr8 Fe1 O16,1.9981999999999998,160
19678,Mg2 Ti1 Ga3 S8,0.027000000000000135,156
19679,Li1 Tl1 O2,0.0,123
19680,Li1 La1 Ta2 O7,2.2783,119
19681,Li1 La1 W2 O8,4.3579,82
19682,Li1 Gd1 Se2,0.09989999999999988,123
19683,Li1 Cd3,0.0,38
19684,Li3 Mn1 As2,0.0,115
19685,Li3 Mg5 Bi3 Pb1,0.013600000000000279,160
19686,Li4 Mn1 Co2 Ni1 O8,0.7608999999999999,8
19687,Li1 V5 O10,0.4648000000000003,5
19688,Lu2 Ti12 Cu9 O36,0.3167,147
19689,La1 Nb2 Cu1 Cl1 O7,0.0,25
19690,La2 Ti2 Co1 O8,2.0948,115
19691,La2 Ti3 Cu1 O10,0.040299999999999336,119
19692,La2 Cu1 O4,0.0,42
19693,In1 Ag3,0.0,187
19694,In1 Ag1 Se2,0.0,160
19695,Ho4 Cd1 Se7,0.9183000000000003,8
19696,In2 Cu1 Te3 Br1,0.5710999999999999,1
19697,Ge5 Te4 Se1,0.2858999999999998,139
19698,Hf10 Al3 Si3,0.0,189
19699,Ga4 Bi1 As3,0.2386999999999997,38
19700,Fe4 Si4 Mo4,0.0,38
19701,Fe4 Te3 Se1,0.0,107
19702,Gd4 Nb2 Ga2 O14,2.0003999999999995,74
19703,Fe6 Te4 Se2,0.0,99
19704,Ga8 Cu8 Ni8 Se24,0.0,9
19705,Dy1 Al1 Co4,0.0,65
19706,Eu2 Cu1 Si3,0.0,187
19707,Er1 B1 Pd2 Rh1,0.0,123
19708,Dy2 Mn2 Fe2,0.0,74
19709,Cu4 Se4 S4,0.0,198
19710,Cr8 Co3 Ni1 S16,0.0,115
19711,Cu20 Sn4 B8 O40,0.024199999999999555,14
19712,Cr3 Fe3 Si1 As2,0.0,189
19713,Cr18 Co12,0.0,35
19714,Ce1 Zr2 O6,1.9756999999999998,71
19715,Ce1 Pr4 O10,0.0,139
19716,Ce1 Al3 Pd1,0.0,119
19717,Ce1 Al1 Ni4,0.0,187
19718,Cd1 Au1,0.0,187
19719,Ce2 Ge3,0.0,44
19720,Cd2 Ga1 Cu1 S4,0.008500000000000174,8
19721,Ca2 Nd2 Nb4 O14,0.0,74
19722,Ce4 Mo6 O24,0.009599999999999831,15
19723,Ce1 Tl2 In1 Se4,0.0,121
19724,Ca1 Ce1 C4,0.0,65
19725,Ba1 Ti4 Bi4 O15,1.5975000000000001,139
19726,Ba1 Ca3,0.0,166
19727,Al1 Tl2 Cu3 Se4,0.0,115
19728,Ba6 Sm3 Al1 Cu8 O20,0.0,2
19729,Ba4 La4 Cu4 B3 O18,0.0,25
19730,Ba9 Sr3 Hg12 O24,2.1795,150
19731,Ba4 Nd5 Cu9 O22,0.0,10
19732,Ba2 La4 Ti6 O20,1.9103000000000003,63
19733,Ag1 Sb1 Pb2 S4,0.7869999999999999,139
19734,Ag2 S1,0.0,225
19735,Ba14 U2 V4 S25 O1,0.3182999999999998,79
19736,B2 P6 H60 Ir2 C18 O3 F8,1.0821,1
19737,Ba18 Fe8 Se32,0.0,5
19738,Mn1 Au1,0.0,123
19739,Cr6 Ru2,0.0,223
19740,Dy2 Si4,0.0,141
19741,O3 Y2,4.083600000000001,164
19742,Nb6 Ge2,0.0,223
19743,Si12 Ba2,0.0,63
19744,O2 Zr1,3.125,225
19745,Al2 Ag3 La1,0.0,191
19746,O16 Nb6 Ag2,1.5603999999999996,72
19747,Sr1 Mo1 O3,0.0,221
19748,N6 O12 K2 Ni1 Sr1,2.1971,202
19749,Ta2 O4,0.0,136
19750,Ge2 Ir2 U1,0.0,139
19751,P2 Mn2 Eu1,0.0,164
19752,Ni2 Sn2 Ce1,0.001300000000000523,139
19753,C2 In2 Ta4,0.0,194
19754,Ag3 Sb1,0.0,25
19755,Cs2 Au2 Cl6,0.0,221
19756,H6 O16 Na2 S4 Zn4,4.3334,2
19757,O4 Fe2 In1,0.0,166
19758,N6 O12 K2 Ca1 Ni1,2.0544000000000002,202
19759,Li6 C2 O14 P2 Cr2,2.8924000000000003,11
19760,O24 P8 Bi2,0.0,12
19761,O32 Cu4 Nb12,0.7487999999999997,14
19762,Tb2 Cl2,0.0,166
19763,Zr1 Rh1,0.0,221
19764,O12 Na8 Tb4,0.0,15
19765,B6 N12 Ce6,0.0,2
19766,Y1 Pd2 Bi1,0.0,225
19767,Zr9 Pt11,0.0,87
19768,Ru4 Er6,0.0,176
19769,C2 Y1,0.0,139
19770,Li2 O24 P6 Cr4,0.0,12
19771,Li6 Ni4 P6 O24,0.0,12
19772,Li4 Ge6 Lu6,0.0,63
19773,Cu1 Pr5 Se8,0.9451999999999998,82
19774,B2 Cr1,0.0,191
19775,C6 Al2 Ta8,0.0,194
19776,Li2 O8 F2 P2 Ni2,0.055499999999999994,2
19777,Li2 O24 P6 Fe4,0.13029999999999997,2
19778,Li2 O14 P4 Ni2,0.012499999999999956,1
19779,Ni4 Nd8 O16,1.3812999999999995,138
19780,S5 Cu9,0.1490999999999998,166
19781,In2 S5 Zn2,0.0,160
19782,Nd5 Cu5 O13,0.0,10
19783,Zn4 Ga12 N12 O4,0.0,1
19784,Ca4 Cu4 O8,0.0,4
19785,Cd2 C4 O8,3.2979999999999996,14
19786,Yb8 P8 S32,0.0,73
19787,Si4 O8,5.5589,5
19788,Na1 W2 Br6 O2,0.0,8
19789,Pb2 Se4 O12,1.2782999999999998,14
19790,Sb4 C4 S4 F44,4.4303,15
19791,Rb4 Re4 S4 O12,2.7978,14
19792,Na2 B2 C8 O16,3.5338,63
19793,Ba8 Ca8 Si8 O32,4.3673,186
19794,Gd2 B2 O6,2.2426999999999997,194
19795,Mg4 Si2 O8,4.7521,227
19796,Ba14 Cr14 O42,0.0,194
19797,Yb1 Cs2 Na1 Cl6,0.0,225
19798,Cr1 Br2,0.0,12
19799,Rb8 Tm2 I12,0.0,167
19800,Mn12 As8,0.0,36
19801,Cs2 Cr2 Cl6,0.0,194
19802,Sn4 H80 C24 N8 Cl24,2.9572000000000003,205
19803,Si3 As4,0.4043000000000001,215
19804,Ga4 Os2,0.6661000000000001,70
19805,Yb1 Ni2 Sn1,0.0,225
19806,Pu2,0.0,15
19807,Zr16 Cu8,0.0,227
19808,In4 H96 C24 Br24 N12,2.7839,148
19809,Ni4 H56 C12 N4 Cl12 O8,3.4911,62
19810,P4 H36 C4 N16 O16,5.0135,2
19811,Cs2 Cr2 Cl6,0.0,186
19812,Gd1,0.0,225
19813,U4 Mo4 O20,0.03629999999999978,54
19814,C12 N12 K6 Co2,4.3253,14
19815,Sb8 Pb8 S22,0.0,55
19816,Na2 H2 O2,2.9316999999999998,6
19817,Na2 H2 O2,2.7883999999999998,8
19818,Ti6 H4 O14,2.6827,8
19819,V12 H8 O32,0.7339,14
19820,Ba12 Fe4 S20,0.0,62
19821,Ca2 P2 H8 O12,0.0,15
19822,Li20 Ge2 P4 O24,4.4932,1
19823,Cr3 Au1 O8,1.1076000000000001,12
19824,Sr20 Cu10 Bi20 O58,0.08539999999999992,1
19825,Li2 O24 P8 Nd2,5.7983,15
19826,Cu3 Mo12 S16,0.0,1
19827,Tl1 N1 O2,1.7320999999999998,1
19828,C12 N12 Na2 Co2 Rb4,4.338900000000001,14
19829,Li4 H8 Br4 O20,1.8113000000000001,15
19830,Mo4 P20 O60,0.04040000000000005,14
19831,Li8 Cr4 P8 O32,0.0,4
19832,Ba4 La4 Mn4 In4 O24,0.0,53
19833,Co7 Re17 O48,0.0,1
19834,Ni4 P10 O30,0.0,7
19835,Fe16 O18,1.1978000000000004,1
19836,Ti6 Fe14 O30,1.1238000000000001,1
19837,K8 P8 H24 N8 O24,4.3165,14
19838,K8 P16 H64 S8 N56 O16,4.5052,61
19839,V4 O8,0.7758000000000003,1
19840,Co4 H16 Se4 O20,2.7378,14
19841,Li2 V10 H36 N4 O38,2.4621,2
19842,Co4 H68 S8 N20 Cl4 O16,0.4716,62
19843,Fe2 P6 H12 O18,2.7925,9
19844,Ba1 Cu1 O2,0.0,123
19845,Sm8 Ti4 O20,3.0740999999999996,62
19846,Y8 Hf4 O20,4.268599999999999,14
19847,Na1 Ti6 O12,0.0,1
19848,Ti2 O2 F2,0.0,59
19849,Li4 Ag4 F8,1.2702,62
19850,Li1 Bi1 S2,0.0,123
19851,Sb4 O4 F4,3.354,33
19852,Li14 Fe2 S9,0.0,1
19853,Li2 Zr1 Cu1 O4,0.0,119
19854,Na8 Mg2 O6,1.4967000000000001,9
19855,Er4 Te2 O4,0.5423999999999998,194
19856,Ba4 Sr4 I16,3.4665,14
19857,Cs4 O2,0.2724000000000002,58
19858,La4 Mg2 O8,3.375400000000001,64
19859,Na2 Li2 O2,2.879,63
19860,Li2 Cu2 P2 O8,0.0,63
19861,Na1 Ce1 O2,0.0,166
19862,Er4 Ti2 O10,3.0380000000000003,63
19863,Ca2 La2 I10,2.1794000000000002,63
19864,Mg4 Sn2 O8,2.6408999999999994,55
19865,Ag4 Br4 O16,1.0812,14
19866,Li8 Bi1 S6,0.0,148
19867,Ce2 Hf2 O8,1.7957,88
19868,K6 Ge2 P2 C2 O14,3.6868000000000003,11
19869,Li3 Ti3 Si6 O18,0.08079999999999998,2
19870,La12 Cu6 O25,0.0,5
19871,Li2 Ag2 F6,0.30920000000000014,2
19872,Mg8 Cu22 O30,0.0,25
19873,Li4 Cu6 C6 O18,0.058499999999999996,6
19874,Li8 Cu4 Si4 O16,0.0,33
19875,Li8 Cu4 Si4 O16,0.0,33
19876,Li4 Bi4 P16 O48,4.4348,14
19877,B4 P4 H36 C8,5.6154,14
19878,Li6 Sb4 P6 O24,3.5668,15
19879,Li8 Cu2 P12 O36,0.33610000000000007,15
19880,Li6 Bi4 P6 O24,3.0965000000000003,12
19881,Li2 Cu8 P6 O24,0.0,36
19882,Bi16 O20 F8,2.4866,62
19883,Li4 Bi4 P16 O48,3.992,14
19884,Li2 Bi2 P8 O24,4.3278,15
19885,Li4 Bi2 P6 O20,2.5981,11
19886,Li12 Cu10 F28,0.016400000000000026,36
19887,Na2 Ti12 O24,0.0,31
19888,Hf6 N4 O6,3.2885999999999997,36
19889,Tb4 Zr4 O14,2.7126,227
19890,Hf5 N5 O2,0.0,8
19891,Na1 Ti8 O16,0.0,1
19892,Li8 Cu10 P12 O44,0.03379999999999983,14
19893,Li4 Cu12 P12 O44,0.13889999999999958,14
19894,V4 As4 O16,1.7336,14
19895,Li4 Ni4 B4 O12,3.1532999999999998,14
19896,Li4 V2 P4 O14,2.9062,2
19897,P10 W2 O30,0.8798,2
19898,Li4 Cr2 P6 O20,2.6484,15
19899,Li3 Fe8 B8 O24,1.2724000000000002,1
19900,Li4 Ni16 P12 O48,3.1528,62
19901,Li2 Co1 Ni1 O4,0.0,119
19902,Li2 V2 Si2 O8,1.7435999999999998,74
19903,Li4 Co4 P4 O16,2.7269,2
19904,Li2 Co2 Sn2 O8,0.7692999999999999,74
19905,Li8 Co8 P8 O32,2.5608999999999997,61
19906,Fe3 Co2 Cu1 P6 O24,0.18619999999999992,146
19907,Li2 V4 P6 O24,1.2198000000000002,15
19908,Li4 Cu3 Sb1 P4 O16,0.0,6
19909,Li2 Fe2 P4 H2 O16,0.0,4
19910,Li2 V5 O10,0.6202000000000001,2
19911,Li10 Mn10 O24,0.1452,1
19912,Li15 Cr2 O12,0.0,1
19913,Li4 Ti2 Nb3 Fe3 O16,0.41990000000000016,1
19914,Li12 Cu18 C18 O54,0.0,1
19915,Li1 Fe1 Si1 O4,2.6321,82
19916,Li1 Co2 P4 H3 O16,0.0,1
19917,Li4 Fe4 Si4 O16,2.2923999999999998,2
19918,Li2 Ti2 Fe4 O10,1.5007000000000001,1
19919,Li9 Mn15 Ni6 O36,0.4935999999999998,1
19920,Li4 Cr4 P4 O16 F4,1.9798,9
19921,Li1 Ni1 Sn1 O4,0.31650000000000045,10
19922,Li2 Ti2 Mn3 O10,0.0,2
19923,Li3 Fe3 Sn2 O10,1.9362,2
19924,Mn8 O8 F8,0.0,1
19925,Li2 Fe3 Co7 O20,0.0,10
19926,Li8 Mn4 F16,4.7007,62
19927,Li3 Cr2 Co2 O8,0.0743999999999998,12
19928,Fe12 O12 F12,0.24189999999999978,6
19929,Mn12 O5 F19,0.0,1
19930,Mn3 Co1 Cu2 P6 O24,0.0,146
19931,Li5 Mn3 Co2 P6 O24,0.7876999999999998,1
19932,Li6 Mn6 F24,1.2802999999999998,2
19933,Li2 V2 Si2 O10,1.7594999999999998,67
19934,Li1 Co2 Cu1 O6,0.0,12
19935,Li8 Mn4 F16,3.9690000000000003,62
19936,Li4 Co4 Si4 O14,2.84,40
19937,Ca6 V20 O50,0.9242000000000001,1
19938,Li4 Mn8 O4 F12,1.3080000000000003,44
19939,Li14 V4 P14 O48,2.5942,13
19940,V2 C4 O12,1.1404999999999998,15
19941,Li12 V8 C8 O40,0.001100000000000101,26
19942,Li4 Cr3 Co3 Ni2 O16,0.9628999999999999,8
19943,Li2 V2 P8 O24,2.2487000000000004,15
19944,Li2 P2 W4 O16,0.05830000000000002,11
19945,Li4 Fe2 Si1 O7,1.8512000000000004,2
19946,Li6 Cr2 O8,1.0166,1
19947,Li6 Cr2 Fe6 O16,0.6261000000000001,9
19948,Li4 Co3 O3 F4,0.0,139
19949,Mn8 O8 F8,0.16690000000000005,1
19950,Li4 Ti3 Mn2 Nb3 O16,0.0,8
19951,Mn12 O10 F14,0.26150000000000007,7
19952,Li6 Co5 Ni3 O16,0.0,1
19953,Li6 Co11 O2 F24,2.3211,1
19954,V1 O2 F1,2.5865,1
19955,Li6 Ti2 Co6 O16,0.6397999999999997,186
19956,Li4 Mn3 Cr2 Sb3 O16,0.07420000000000027,8
19957,Mn12 O7 F17,0.0,1
19958,Li16 Fe2 O8 F4,3.0276,2
19959,Li3 Fe8 B8 O24,1.6683999999999999,1
19960,Li3 Fe8 B8 O24,1.2487,1
19961,Mn12 O10 F14,0.02079999999999993,1
19962,Li3 Fe8 B8 O24,1.3699999999999999,1
19963,Li2 Fe8 B8 O24,1.5152999999999999,1
19964,Mn12 O10 F14,0.0,1
19965,Mn6 O2 F16,0.0,9
19966,Mn8 O12 F4,0.0,65
19967,Li2 Fe6 O2 F10,2.5003,1
19968,Mn12 O10 F14,0.0,1
19969,Li4 Mn3 V2 Fe3 O16,0.8076000000000003,1
19970,Fe4 O1 F7,0.8031999999999999,44
19971,Li2 V2 F10,1.9896,85
19972,Li4 Ni2 O1 F7,0.6706000000000001,8
19973,Li8 V4 F16,2.6486,14
19974,Li3 Fe8 B8 O24,1.4157000000000002,1
19975,Li8 V4 O4 F16,2.4813,1
19976,V4 O6 F6,0.11430000000000001,3
19977,Li28 Mn10 F48,3.5262,55
19978,Li1 Fe8 B8 O24,1.2682999999999998,1
19979,Li6 Fe5 W1 O12,1.6384000000000003,8
19980,Ni6 O2 F10,0.2744000000000002,12
19981,Li2 Fe8 B8 O24,1.4879,1
19982,Li6 Co1 Si2 O8,2.6850000000000005,2
19983,Mn12 O6 F12,1.1267,15
19984,Li4 Ni3 O6 F1,0.0,1
19985,Li4 Co2 Si4 O12,2.8871,4
19986,Li2 V2 P8 O24,2.2558,4
19987,Li4 Ni4 P4 O16,3.3137999999999996,7
19988,Li4 V12 O16 F8,1.4523000000000006,62
19989,Li9 Mn4 B8 O24,0.6737,1
19990,Li15 Mn15 Co3 O36,0.1109,1
19991,Li8 V1 Ni3 P6 O24,1.5875000000000001,146
19992,Li12 V2 O10 F2,2.2588999999999997,1
19993,Li4 Ti4 Co4 O16,0.9399000000000002,95
19994,Li1 V3 O5 F1,1.2032000000000003,1
19995,Li4 V2 F10,2.3316,1
19996,Sn4 P12 O36,0.0,19
19997,V6 O10 F6,1.0141999999999998,9
19998,Li4 Cu3 Bi1 P4 O16,0.0,6
19999,Li7 Mn3 Co3 O16,0.08190000000000008,8
20000,Ni6 O2 F10,0.5717,12
20001,V2 Co6 O16,0.0,9
20002,Co3 Ni1 O8,0.0,166
20003,Zr3 U7 O20,0.0,1
20004,Li3 Fe8 B8 O24,1.3453,1
20005,Li12 Ni12 P12 O48,3.5025999999999997,14
20006,Li6 Mn5 Fe1 O12,0.0,12
20007,Mn1 V4 O12,0.9208,5
20008,Li1 V1 F4,2.1645000000000003,10
20009,Li8 Mn1 Fe3 O12,0.0,3
20010,Li6 Mn2 O4 F4,1.2029999999999998,13
20011,Li4 Mn7 O9 F7,0.43589999999999995,1
20012,Li1 Mn2 P2 O8,0.8097,1
20013,Li3 Mn3 O5 F3,0.7765,1
20014,P4 W2 O16,1.9197000000000002,14
20015,Mn8 O2 F16,0.7287,9
20016,Li4 V2 C4 O12,2.8253,14
20017,Li2 Mn7 F18,0.6911,2
20018,Li8 V8 Si8 O32,2.0159000000000002,14
20019,Li14 Mn2 O8 F4,2.3179999999999996,1
20020,Mn6 O4 F12,0.0,14
20021,Li16 Si8 Ni8 O32,3.4006000000000003,29
20022,Li6 V2 F12,2.5445,1
20023,Li12 Mn4 O10 F4,0.8142,1
20024,Li4 V8 O13 F3,0.9380999999999999,1
20025,Li3 Cr4 P6 O24,0.050799999999999956,2
20026,Li8 Si8 Ni8 O28,3.2025000000000006,14
20027,Mn8 Si8 O26,0.0,2
20028,Li1 Ti2 Mn3 O10,1.4676,1
20029,Na6 Ge2 P2 C2 O14,3.6381,11
20030,Li2 Ce2 P2 C2 O14,1.2363,4
20031,Dy2 Nb2 O8,3.2584000000000004,1
20032,Ba6 Y4 Br24,3.7763999999999998,15
20033,Ba2 Y6 Cl22,3.7241999999999997,51
20034,Sr16 Ta8 O36,4.1571,60
20035,Na10 Cr4 As2 C8 O32,0.2356999999999998,43
20036,Mn9 Fe4 O24,0.7598999999999998,1
20037,Na4 Fe2 O6,0.05099999999999999,1
20038,Li4 Cr2 O8,2.502,1
20039,Li8 Fe2 O8,0.3040999999999999,2
20040,Gd4 V4 O14,1.3003999999999998,2
20041,Li4 V4 O4 F12,2.6582,76
20042,Dy2 W2 O8,2.1716,88
20043,Li4 Mn2 Si2 C2 O14,1.2593999999999999,11
20044,Li4 Cr2 O6,1.4081,36
20045,Ca4 Y8 O16,3.6651,62
20046,Li6 Al6 V6 O24,0.36549999999999994,148
20047,Li4 Ti2 Mn3 V3 O16,0.44769999999999976,1
20048,Li4 Co2 Si8 O20,3.0596,2
20049,Li12 Mn4 Al8 O24,1.4060000000000001,14
20050,Li8 Sn4 B4 O16,1.2701000000000002,14
20051,Be4 Fe8 O16,1.7507000000000001,62
20052,Li4 Ni3 W1 O8,2.0751,166
20053,Li5 Fe3 Sb2 O10,0.0,2
20054,Li3 Ti1 Co2 O6,0.0,12
20055,Li8 V12 Bi4 O32,0.9152999999999998,1
20056,V4 Cr1 Co1 O12,0.09199999999999964,5
20057,Li5 Co3 Ni2 O10,0.48980000000000024,2
20058,Li5 Mn3 Sb2 O10,0.0,2
20059,Li4 Mn3 Nb2 Cu3 O16,0.018199999999999772,1
20060,Li6 Mn3 Sb3 O16,0.27810000000000024,8
20061,Li6 Fe2 Si2 B2 O14,0.0,11
20062,Li2 Cr3 Sn1 O8,0.0,160
20063,Li1 Ti1 V3 O10,1.7757999999999998,5
20064,Li3 Mn2 Cu1 O6,0.0,12
20065,Li4 Mn3 Nb1 O8,0.0,1
20066,Li3 V4 Ni1 O12,0.0,5
20067,Mn1 Sn3 P4 O16,0.7295999999999996,6
20068,Sr8 La4 Cl28,3.6174,14
20069,La8 Al12 O30,4.3641000000000005,1
20070,Li3 V1 Te4 O12,1.9196,1
20071,Mn3 Nb2 Cr3 O16,0.7195,1
20072,Li8 Cr4 C8 S2 O32,2.2881,70
20073,Li4 Mn1 Cu3 O8,0.0,12
20074,Si2 Tm1,0.0,191
20075,Li4 Cr5 W1 O12,1.4360999999999997,12
20076,Ba10 La4 Cl32,4.2429,68
20077,Ba6 La6 Cl30,3.5974,2
20078,Ba4 La4 I20,2.4932,4
20079,La4 Mg4 I20,2.6292999999999997,14
20080,Tm2 Cl2 O2,5.0946,129
20081,Li4 Mn2 B2 P2 O14,0.7383,11
20082,Li3 Co1 N6 O12,2.3954999999999997,166
20083,Li16 Co8 Si8 O32,2.9162999999999997,29
20084,Li24 Fe4 B12 O36,2.0524000000000004,14
20085,Li2 Cr12 O22,0.0,1
20086,Dy4 W4 O18,3.1433999999999997,2
20087,Li4 Co5 Cu1 O12,0.07779999999999987,1
20088,Li5 Cu3 Ni2 O10,0.0,2
20089,Li4 V4 B8 O20,2.5525,15
20090,Li1 Y3 W1 O8,3.2087,3
20091,Li2 Ti1 Mn1 O4,0.39010000000000034,10
20092,Li12 V18 O42,2.4621,159
20093,Li14 Cr4 P14 O48,2.7108999999999996,13
20094,Mn3 Te1 O8,0.6513,12
20095,Li8 Fe12 Cu4 O32,0.0,1
20096,Li2 V2 P6 H2 O20,2.1452,15
20097,Li4 Ti2 Mn2 O8,0.3027000000000002,74
20098,Li12 Mn2 V6 P12 O48,0.0,167
20099,Li4 Mn3 Ni2 Sn3 O16,1.0095,8
20100,Li5 Mn7 O15,0.0,1
20101,Li4 Ti2 Co3 Sb3 O16,0.0,8
20102,Li4 Cr3 Ni3 Sn2 O16,0.0,8
20103,Li36 Ni8 O32,0.1262,29
20104,Zr12 N12 O6,1.6522999999999994,8
20105,La4 Nb4 N4 O10,1.8865999999999996,5
20106,Li4 Sb1 Te3 O12,0.04330000000000034,3
20107,Li3 Fe3 F12,3.3284,160
20108,V5 Cr1 O12,1.1851000000000003,5
20109,Mg8 Cu22 O30,0.0,25
20110,Li5 V3 Fe2 O10,0.2650999999999999,2
20111,Li2 V5 Ni1 O12,0.7702,5
20112,Y4 Nb8 N4 O20,2.4179,1
20113,Ti12 O18,0.0,11
20114,Li2 V2 F8,2.4242999999999997,9
20115,Li2 V4 F14,2.1376999999999997,15
20116,Li1 V4 O5 F7,0.6176,1
20117,Cr2 P4 H3 O16,0.03950000000000009,1
20118,Li4 Ti1 Mn2 Ni3 P6 O24,2.2646,1
20119,Li6 V8 F38,1.3893,2
20120,Li1 Tm1 O2,4.6182,166
20121,Li3 Fe6 O3 F15,1.9051,1
20122,Li8 Mn4 P4 O16 F4,3.6683000000000003,1
20123,Li6 Mn9 B9 O27,0.26200000000000023,1
20124,Li4 Mn6 B6 O18,0.2256999999999998,1
20125,Li4 Mn6 B6 O18,0.18710000000000004,1
20126,Li6 Mn9 B9 O27,0.0,1
20127,Mn8 O13 F3,0.0,1
20128,Mn8 O13 F3,0.0,1
20129,Li6 Mn12 B12 O36,0.5207000000000002,1
20130,Li16 Fe8 F32,3.3555,14
20131,Li4 V4 F12,2.3764000000000003,15
20132,Li5 Mn3 Cu2 P6 O24,0.34830000000000005,1
20133,Mn6 O7 F5,0.0,8
20134,Ni6 O2 F10,0.30299999999999994,2
20135,Li3 Fe8 B8 O24,1.6527,1
20136,Tm12 Sb12 O42,2.1304,1
20137,Li16 Fe4 F32,0.0,62
20138,Dy10 Ti10 O34,0.0,31
20139,Mn12 Ni4 O32,1.1402999999999999,212
20140,Li4 Mn3 Ni3 P6 O24,0.5587,1
20141,Li4 V4 F12,2.6116,198
20142,Ni6 O2 F10,0.5882999999999999,2
20143,Li24 Fe8 B8 O32,3.0694000000000004,88
20144,Li6 Mn12 B12 O36,0.3411000000000002,1
20145,Li4 Mn8 B8 O24,0.5357000000000001,1
20146,Li4 Cr4 P12 O36,3.1423000000000005,19
20147,Li4 Co4 Si4 O16,1.5173999999999999,33
20148,Li12 Fe4 B8 O24,2.1966,14
20149,Li12 Mn4 V4 P12 O48,0.44619999999999993,1
20150,Mn12 O17 F7,0.0,1
20151,Li12 Mn4 V4 P12 O48,0.2045999999999999,1
20152,Mn64 O96,0.0,92
20153,Li12 Mn4 V4 P12 O48,0.4108000000000003,1
20154,Li1 Cr1 Co2 O6,0.0,12
20155,Ni6 O2 F10,0.22099999999999997,12
20156,Li8 Mn1 O4 F2,2.6208,2
20157,Fe6 O7 F5,0.23629999999999995,6
20158,Na8 Bi4 O12,0.0,14
20159,Li4 Mn4 P4 O16,3.1544,33
20160,Mn8 O13 F3,0.0,1
20161,Fe10 O11 F9,0.0,1
20162,Li8 Fe8 O8 F16,1.7247999999999999,1
20163,Mn8 O13 F3,0.0,1
20164,Li18 Cu4 H8 O16,0.0,31
20165,Li4 Co2 O2 F6,0.6847,12
20166,Al1 S2 Ag1,1.7077,156
20167,V5 Co1 P6 O24,0.0,146
20168,Al2 Nb6,0.0,223
20169,N2 P6 V10,0.0,193
20170,Li8 O6 Pr1,0.0,148
20171,Li3 Ni1 Sb4 O12,0.0,1
20172,Mn12 O10 F14,0.0,1
20173,Li8 Mn12 B12 O36,0.0,1
20174,Mn6 O8 F4,0.0,1
20175,Li2 Fe8 B8 O24,1.4752,1
20176,Li8 Co2 O6 F2,1.9314,36
20177,Li4 Fe4 F16,4.0037,14
20178,Li3 Mn6 B6 O18,0.30310000000000015,1
20179,Mn8 O13 F3,0.0,1
20180,Li4 Mn6 B6 O18,0.0524,1
20181,Mn12 O10 F14,0.0,1
20182,Li3 Sb1 S4,2.5601,215
20183,Mn8 O13 F3,0.0036000000000000476,1
20184,Li2 Fe8 B8 O24,1.2726999999999997,1
20185,Li8 Mn8 P16 O56,0.4272,1
20186,Li4 Mn8 B8 O24,0.3985000000000001,1
20187,Li4 Mn8 B8 O24,0.24309999999999987,1
20188,Mn12 O10 F14,0.0,1
20189,V2 Fe2 O8,1.7642,74
20190,Mn12 O7 F17,0.042100000000000026,1
20191,Na3 Mn5 O12,0.0,10
20192,Li8 Co1 O5 F1,0.9272,1
20193,Li5 Mn10 B10 O30,0.22310000000000008,1
20194,Li2 V3 Cu1 O8,0.0,166
20195,Li8 Fe20 F68,2.9095,63
20196,Li4 Mn3 O1 F8,1.7753999999999999,8
20197,Li10 Mn15 B15 O45,0.0,1
20198,Li2 Ni2 P8 O24,0.0,15
20199,Li4 Ni4 P4 O16,3.2718,33
20200,Li4 Mn4 P4 O16,3.3801000000000005,62
20201,Li4 Fe4 Si4 O16,2.6311,33
20202,Li4 Mn2 O2 F6,1.0863,8
20203,V6 P6 O24,0.0,167
20204,Te2 I4,0.7143999999999999,136
20205,Hf1,0.0,225
20206,Tm2 Os1 Au1,0.0,225
20207,Tm2 Zn1 Tc1,0.0,225
20208,Ti2 Re1 Pt1,0.0,225
20209,Ca4 Sn2 S8,2.4422999999999995,40
20210,Ca2 Sn2 S6,1.6173000000000002,148
20211,Ce2 Ag1 Pb1,0.0,225
20212,Li2 Ag6 F16,0.0,1