Index,Composition,bandgap,spgN
4712,Mg16 Al12 Te1,0.0,217
4713,Mg5 Ge1,0.0,155
4714,Mg5 Ge1,0.0,8
4715,Mg1 Ni3,0.0,139
4716,Na3 Eu1,0.0,225
4717,Pr6 Zn2,0.0,194
4718,Pu1 Ag3,0.0,225
4719,Pu1 Mg16 Al12,0.0,160
4720,Pt2 Pb6,0.0,194
4721,Sb2 Pt6,0.0,194
4722,Tl3 Ga1,0.0,225
4723,Yb1 Ga1 O3,0.0,221
4724,Y3 Ga1,0.0,221
4725,Y3 Sn1,0.0,139
4726,Zn1 Pb3,0.0,225
4727,Zn1 Sn3,0.0,139
4728,Li2 Se4 O12,0.2048000000000001,7
4729,Co4 Bi4 O12,0.3144,62
4730,Cu3 Mo2 H2 O10,0.30810000000000004,2
4731,Cs2 Sb4 F14,3.1954000000000002,15
4732,K6 Mo2 H2 S8 O2,2.1868000000000003,31
4733,Mg4 Al8 Zn6,0.0,194
4734,La4 Yb4 O12,0.0,62
4735,Cd4 Tc4 O12,0.0,62
4736,Yb4 Ge6 Os7,0.0,229
4737,Ho1 H9 C5 N2 O8,4.4975000000000005,5
4738,Ti8 O16,2.0991,61
4739,Ce4 V4 O16,0.08309999999999995,14
4740,H12 C4 O8 F4,5.5136,62
4741,Sn2 P4 H4 O16,2.5689,15
4742,La6 Co2 W2 S6 O12,1.1432000000000002,176
4743,Pr8 Cu2 S14,0.0,173
4744,K2 I6 O18,0.02400000000000002,2
4745,K8 Mo4 S8 O8,2.3839,14
4746,Ti6 Ga16 Ru7,0.0,225
4747,Na8 V4 O16,0.3379,2
4748,Ag2 Sb2 C4 N4 Cl4 F12,3.1428000000000003,14
4749,Ca4 Al8 Si12 O42,0.32159999999999994,7
4750,Ag8 B40 H48 N16 Cl40,2.7765,60
4751,H32 Pb4 C20 S8 I4 N4,2.9387,14
4752,Cs4 H24 Rh4 N24 O32,2.7643,19
4753,Pb12 N4 O24,0.0,57
4754,Cd4 Hg4 S4 O22,0.0344,13
4755,Pr32 Mo42 O112,0.8411,14
4756,U2 H8 C8 O20,0.08899999999999997,15
4757,Li8 Si12 H120 C40 N16,3.087,15
4758,Mg24 H48 C48 O96,4.7097,29
4759,Np2 B16 O34,0.0,9
4760,Rb8 B40 H100 N20,3.8920000000000003,62
4761,Zn12 H96 C16 Se20 N48 O60,4.267799999999999,57
4762,Ga1 Si6 Bi1 H54 C18 N4 Cl4,1.3837000000000002,1
4763,Co2 B20 H52 O16,2.7212,15
4764,Sb4 C6 O2 F36,2.1546000000000003,2
4765,Cs4 Na4 B40 H124 N28,3.4168,2
4766,Ba10 Si8 O28,0.0,128
4767,Cs2 U4 P8 O32,0.008899999999999686,15
4768,Ag2 H72 S16 N22 O36,2.3031,122
4769,Dy8 Co2 B26,0.0,128
4770,Sn2 H12 Cl4 O22,4.4085,173
4771,H38 C12 N6 Cl2 O4,4.4498,2
4772,Na10 Sc2 C8 O28,0.4478,114
4773,Ca2 V2 Si8 H12 O30,0.6522,36
4774,Cu4 Si4 Pb4 C4 Cl1 O28,0.0,87
4775,Sr4 P12 H40 C12 N4 O36,5.4881,14
4776,Co4 B40 H92 C52,1.5462,14
4777,U4 P8 H144 C48 Br8 N24 O16,1.5766,92
4778,K8 Mn8 H16 C24 S24 N24 O8,3.4852,61
4779,Na2 Co7 H16 C16 O32,2.6959,2
4780,Na4 Co2 H8 C8 O16,2.9995,15
4781,Dy8 Ni2 B26,0.0,128
4782,Cd6 Se8 O24,0.1414,14
4783,Zn4 C16 N8 O24,3.5853,34
4784,H56 C20 Br4 N12,4.1013,14
4785,Co12 H24 C24 O48,2.6629,14
4786,Fe8 P6 O30,0.0,15
4787,Sb12 Se24 N12 Cl96,1.5329,33
4788,Rb16 U8 Si16 O72,0.6503,14
4789,Li4 Si12 H108 C36 N8,2.8870999999999998,2
4790,H46 Ru2 S4 N10 Cl2 O24,0.0403,2
4791,Ba6 Na2 Si4 B14 O40,0.38660000000000005,15
4792,Na8 Ti4 Si16 H8 O52,0.3337,60
4793,Si12 P4 H108 C36 N8 Cl8,3.7561,14
4794,Nb4 Co8 Sn4,0.0,51
4795,Co1 Re1 Pb2 O6,0.0,225
4796,Co2 P4 W2,0.0,194
4797,Cu3 Pd1 N1,0.0,221
4798,Pr1 Co5 H4,0.0,65
4799,U1 Pd2 Pb1,0.0,225
4800,Tb1 Cu1 Te2,0.39250000000000007,164
4801,Ti1 Cu2 Sn1,0.0,225
4802,Ce1 Cr2 Si2,0.0,139
4803,Zr12 Al4 Fe2 H20,0.0,190
4804,Zn2 Ga1 Se4,0.0,121
4805,Y3 Ni9 Sn6,0.0,191
4806,Y3 Al6 Si6 B3 H3 O31,0.0,160
4807,Th10 O2 F38,0.7088000000000001,63
4808,Tb3 Ni9 Sn6,0.0,191
4809,Ta4 Te16 Pt1 I8,0.039699999999999847,2
4810,Zn12 N72,2.902,62
4811,Sr2 Tb1 Cu2 Bi2 O8,0.0,139
4812,Sr2 Sm1 Cu2 Bi2 O8,0.0,139
4813,Sr2 Nd1 Cu2 Bi2 O8,0.0,139
4814,Sr2 Ca4 Cu4 Bi4 O16,0.0,66
4815,Re2 Ni2 O8,0.8640999999999996,12
4816,Sm4 Bi8 Se16,0.0,62
4817,Pr4 Ta4 O18,0.2818999999999998,14
4818,Sm8 Cr2 S14,0.19039999999999946,173
4819,Rb8 Ti4 Si12 O40,0.8999999999999999,19
4820,Re12 Pb8 Se24,0.0,15
4821,Na2 Yb2 Cl8,0.668,13
4822,Na6 W2 O8,1.1303999999999998,31
4823,Na3 Eu2 Si2 Se6,0.0,12
4824,Mg14 Ir6,0.0,229
4825,Li4 Ca2 Mn4 N4,0.0,127
4826,Na8 H48 C16 S16 N24 O16,3.0404,14
4827,K4 Pd2 O8,0.4503,4
4828,La6 Cu4 S14,0.0,173
4829,Mn16 Si12 Cl2 O48,0.04590000000000005,164
4830,Rb3 Nb1 F12,0.0,12
4831,H4 C16 N4 Cl8 O12,3.0145,14
4832,H8 C12 N4 Cl4 O4 F16,4.3753,14
4833,Ga12 O20,0.0,62
4834,Fe2 Te4 H1 Cl1 O12,0.16669999999999963,2
4835,Cs4 Sm8 I20,0.008799999999999919,14
4836,Cs8 W4 O32,2.9832,14
4837,Ce4 W2 O12,0.7520000000000007,136
4838,Ca8 Mo7 O20,1.1020999999999992,87
4839,Bi2 W2 O8,1.3225999999999996,88
4840,C28 Cl32,3.0327,14
4841,Ba1 Nb6 H1 O16,1.6273,71
4842,Ba4 Sm8 Co8 O24,0.0512999999999999,58
4843,As4 C12 S12 N4 F40,0.6853,14
4844,Ba4 Fe12 Si16 S4 O44,1.1066000000000003,58
4845,Ba12 Gd4 Fe8 O30,1.8464,13
4846,Ca4 H16 W8 Cl8,0.9156,60
4847,Zr1 Al1 Fe4,0.0,216
4848,Zr5 Se8,0.0,166
4849,Zn2 Ge1 S3,1.1001999999999996,156
4850,Zr1 V9 Ge6,0.0,121
4851,Yb4 Ti8 O20 F4,0.0,18
4852,Yb29 Se32,0.0,139
4853,V1 Fe1 Cu2 O4,0.0,166
4854,Y4 Fe29 Si5,0.0,2
4855,Tl2 O3,0.0,164
4856,Tm2 Fe2 Cu2,0.0,74
4857,Tm4 Fe1 S7,0.05690000000000062,8
4858,Ti1 Mn1 V2,0.0,35
4859,Ti2 Fe2 Sb2 O12,0.9293,102
4860,Ti2 Ga2 Cu2,0.0,164
4861,Ti4 Fe2 B4 Ru6 Rh4,0.0,10
4862,Th1 Al2 Co3,0.0,65
4863,Tc1 Mo1,0.0,65
4864,U4 Nb12 O42,1.5231000000000001,15
4865,Sr2 Gd2 Co2 O8,0.0,63
4866,Sr1 Fe3 Bi2 O9,0.0,164
4867,Sr2 Pr1 F6,0.0,71
4868,Sn3 Bi1 Te4,0.0,166
4869,Sm1 Ti1 Fe11 N1,0.0,44
4870,Si4 Ni4 W4,0.0,38
4871,Si4 Ni4 Mo4,0.0,38
4872,Rb4 H16 O12,0.38369999999999993,43
4873,Pr1 Mn5 Co7,0.0,44
4874,Pr2 Co1 Si3,0.0,187
4875,Ni4 Ru1,0.0,166
4876,Nd1 Ti1 Fe11 N1,0.0,44
4877,Ni4 Ge1 Pt5,0.0,123
4878,Nb1 Al1 V2,0.0,35
4879,Nd2 Si3 Ni1,0.0,187
4880,Nb8 N5,0.0,123
4881,Nb4 Al1,0.0,69
4882,Nb3 O5 F5,1.5272999999999999,71
4883,Nd4 Ge13,0.0,25
4884,Nb2 Ru1,0.0,69
4885,Nb2 N1,0.0,164
4886,Na2 Hf6 N6 Cl6,0.0,12
4887,Na1 O2,0.0,166
4888,Na1 Co1 O2,0.9700000000000002,160
4889,Na1 Bi1 S2,0.31300000000000017,123
4890,Na3 W2 Cl4 O4,0.3235999999999999,38
4891,Na8 Mg4 Si20 O48,4.8201,73
4892,Mn1 Au3,0.0,166
4893,Mg5 Mn3 Zn4 Si4 O24,0.06889999999999996,8
4894,Mg1 Al8 Fe3 P8 O40,0.006099999999999994,2
4895,Li1 Fe1 O2,0.08809999999999985,123
4896,Lu2 Fe2 Cu2,0.0,74
4897,Li1 La1 Ti2 O6,1.7584,225
4898,Li1 Er4 H4 Cl4,0.0,166
4899,Li1 Zn2 Cr1 O4,1.2703000000000002,139
4900,Li1 V3 O6,0.3416999999999999,12
4901,Li1 Co2 O3,0.0,71
4902,Li4 Mn1 Co2 Ni1 O8,0.0,160
4903,Li2 Al2 Si4 O13,0.3165,1
4904,Li2 Ta2 W2 O13,0.40080000000000005,44
4905,K1 Sr1 Bi2 O5,0.0,123
4906,K1 Sn2 F5,2.1253,8
4907,K1 Na2 Ni1 O2,1.4636,107
4908,Ir1 Pd1,0.0,166
4909,In1 Pd3,0.0,123
4910,Ho3 Mn3 Ga2 Si1,0.0,174
4911,In2 Hg8 As5 Br7,0.0,12
4912,Fe1 Te2,0.0,12
4913,Ho4 Fe29 Si5,0.0,2
4914,Fe1 Cu1 Te2,0.0,115
4915,Fe1 Ni1 P2 S6,0.04039999999999999,5
4916,Fe3 Ni3 Ge2,0.0,160
4917,Fe12 Si2 B2,0.0,26
4918,Er2 Mg1,0.0,69
4919,Er2 Fe2 Cu2,0.0,74
4920,Cu1 As1 Se2,0.0,115
4921,Cu1 Ge2 P3,0.0,156
4922,Eu3 Pd1,0.0,166
4923,Cu3 Sb1 Se4,0.0,160
4924,Cu2 Se1,0.17569999999999997,44
4925,Cu24 Sb4 As4,0.0,40
4926,Co2 As2 S2,0.0,10
4927,Co4 Si4 W4,0.0,38
4928,Cr1 Mo1,0.0,65
4929,Ce2 Sm2,0.0,194
4930,Co4 As4 H16 O26,0.2108,7
4931,Ce2 Mn20 Cu2,0.0,35
4932,Ce4 Al4 Ru4,0.0,38
4933,Ce2 B1 Pd6,0.0,123
4934,Cd3 Fe1 S4,0.0,115
4935,Ce5 S8,0.0,216
4936,Ce2 Mn5 Ni5,0.0,47
4937,Bi4 Te3 S3,0.5248999999999997,160
4938,Ba10 Nb4 O22,2.4083,15
4939,B13 P1,0.0,160
4940,Al4 Si8 O24,0.0,96
4941,Al2 Fe3 Bi3 O12,1.7252,1
4942,Al4 Si8 O24,0.0,1
4943,Al22 O36,0.0,11
4944,Ag2 Sb6 Pb2 S12,1.4392999999999998,7
4945,Al2 Cu12 H24 S2 Cl2 O38,0.18009999999999993,9
4946,Co40 As24 O114,0.09320000000000017,9
4947,O12 Ge4 Cd4,0.8428,62
4948,O2 Ag1 Yb1,0.0,166
4949,N2 Al2,3.2676000000000007,194
4950,Tl2 Ga2 O4,2.1553,166
4951,Sn1 Sb1,0.0,221
4952,Hg2 U1,0.0,191
4953,O24 Si6 S2 Yb10,0.10210000000000008,176
4954,O3 Cr1 Pr1,2.2733999999999996,221
4955,Th2 N3,0.0,164
4956,O16 Sn4 W4,3.8370000000000006,198
4957,O44 Mo16 Sm16,0.8328000000000002,55
4958,S8 Sc4 Fe2,0.0,227
4959,C12 N12 Na2 Mn2 Cs4,0.03109999999999999,14
4960,Mn3 Ge3 Yb3,0.0,189
4961,O6 Eu3 Ta1,1.9471999999999996,225
4962,O12 Sr4 Tb4,0.0,62
4963,O12 La4 Yb4,0.0,33
4964,B8 Cl16,2.9181,61
4965,Fe4 Pr2,0.0,227
4966,H3 C3 O6 Sm1,4.1122,160
4967,H4 F8 P4,3.7857,19
4968,H18 C6 N12 Cr1 Co1,1.8694,148
4969,H20 Al4 Co2 Zr12,0.0,190
4970,O14 Si4 Cu5,0.0,2
4971,O8 F2 P2 Cu2,0.0,2
4972,O16 Mo4 Tl6,0.0,173
4973,Mn4 Ho2,0.0,227
4974,Al4 Ca6 As8,1.1222999999999996,15
4975,Fe2 Co1 Ge1,0.0,225
4976,C1 O5 Bi2,1.0710999999999995,44
4977,Cu8 O1,0.0,38
4978,Li4 Cl4 O8,2.6926,138
4979,O8 P2 Cr2,1.5779999999999998,43
4980,Mo4 P8 O28,1.1913,14
4981,Li2 O16 P4 V2,0.8379000000000001,26
4982,O32 P8 V6,0.7507000000000001,4
4983,In2 Li2 Se4,0.39419999999999966,141
4984,As2 Na2 Se4,0.028200000000000003,141
4985,C2 Na4 O5,2.7228,8
4986,Ba1 La1 Mn1 O6 Ta1,0.9447999999999999,216
4987,S12 Co4 Ba8,0.0,62
4988,Y8 Co2 B26,0.0,128
4989,Er16 O40 Ti8,2.2043,8
4990,B36 Cs4 O52,3.1242,91
4991,Ba24 K16 Sb32,0.44410000000000016,1
4992,Li4 Ni2 P4 O16,0.0,6
4993,Eu1 Tl1,0.0,221
4994,O4 Ag1 Cl1,2.3652,216
4995,B2 H22 C8 Br2 N2 F8,5.1175999999999995,11
4996,Mg12 H24 C24 O48,4.8844,14
4997,Eu2 P2 H10 C2 O14,0.0,2
4998,W4 S8 N12 Cl12,0.8738999999999999,14
4999,Os2 C8 Cl4 O8,2.3422,136
5000,Cs4 S8 N12 O16,2.6646,14
5001,Gd2 P2 H10 C2 O14,3.1807,2
5002,Zn12 H24 C24 O48,4.5082,14
5003,Mn2 H42 C14 S6 N2,1.4577999999999998,2
5004,B2 H22 C8 N2 Cl2 F8,6.373200000000001,11
5005,C4 S12 Br16 N8,1.2836,33
5006,Te12 As8 S4 O8 F48,2.0234,2
5007,Te16 As8 S4 O8 F48,1.1831,14
5008,V2 H28 C8 N2 O4 F6,3.0679,2
5009,K4 Na8 Ni4 O8,1.4728999999999999,64
5010,Fe4 H16 C12 O20,2.6387,7
5011,Si6 P2 H54 C18 Br2 N4,2.8687,2
5012,Sb4,0.0,11
5013,Ge1 I2,1.9586,187
5014,Cs1 Sm1 Cl3,0.0,221
5015,Rb8 Au8 C16 N16,3.1199,15
5016,K4 C4 Se4 N4,3.6215,14
5017,La2 Nd2 I8,0.0,15
5018,Cd8 N48,2.7759,61
5019,Sm2 Cu4 Sn5,0.0,107
5020,Mn2 Os1 C6 N6,1.7792999999999999,147
5021,Ca12 Hg4,0.0,221
5022,Se4 S16 N12 Cl20,2.336,19
5023,Cd6 I12,0.0,156
5024,Sn2 H28 C8 Br8 N4,2.2939999999999996,14
5025,Gd12 Fe20 O48,0.0,230
5026,O6 Mg2 Si2,5.7928,148
5027,Mn1 Sb1 Au1,0.0,216
5028,Te4 H84 C28 N12 Cl24,3.0381,14
5029,H64 C24 Se8 N16,3.2151,61
5030,Ca8 Al8 H40,2.936,14
5031,O22 Co8 Ba4 Ho4,0.0,51
5032,Ce2 Fe2 As2 O2,0.0,1
5033,Hg4 H96 C32 I16 N8,2.5974,19
5034,Ru2 N4,0.0,58
5035,K2 Cu1 Pb1 N6 O12,0.0,196
5036,Gd1 Cr2 Si2,0.0,1
5037,K8 Zn4 C16 N16,5.8898,167
5038,Cu2 H4 O4,0.04059999999999997,9
5039,U1 H2 O4,1.577,1
5040,Ta4 H8 O14,3.8863,43
5041,Fe16 H16 O32,1.3496000000000001,1
5042,H8 W4 O20,1.9137000000000002,14
5043,Sb4 N24 Cl4,0.5765,15
5044,Ti4 In10,0.0,1
5045,Ce4 Rh4 C8,0.0,78
5046,Ta20 Al10,0.0,136
5047,Hg32 Br12 O16,0.2024,14
5048,U6 Ga10,0.0,63
5049,La4 Cd2 Te8,0.5282,122
5050,Tm4 Mn2 S8,0.9512999999999998,122
5051,Ge6 Bi7 O22,0.6659999999999999,1
5052,Lu16 Ti8 O40,2.4391,1
5053,Hg4 As2 F12,0.0,15
5054,Ti1 Fe2 Se4,0.0,2
5055,Nd1 Zr9 O20,0.0,2
5056,K14 Si16 Te40,0.0,7
5057,Na8 Sr12 As16,0.504,14
5058,Cs6 Ca3 Al12 Si12 O48,2.8667,1
5059,Na8 Al11 Si13 Ag3 O48,2.167,1
5060,Bi6 O9,0.9627999999999997,1
5061,Cu19 Se11,0.0,1
5062,Zr27 O49,0.0,156
5063,Be16 F32,6.5396,1
5064,Li26 Nb26 O78,0.0,1
5065,Gd6 Nb2 O14,2.3694000000000006,1
5066,Sr2 La14 Mg4 Ga12 O45,1.2361999999999993,1
5067,Sr2 La14 Mg2 Ga14 O45,0.0,1
5068,Ca4 Al11 Si13 Ag3 O48,2.4763,1
5069,Co4 P8 O28,0.3529,14
5070,Li25 Ca5 La7 Nb8 O48,3.3837,1
5071,Na7 Al12 Si12 H6 Cl1 O48,3.6089,1
5072,U2 H4 Se4 O18,0.4764,15
5073,K4 Na10 Al14 Si10 O48,2.3028,1
5074,H24 S4 N8 O16,5.2248,19
5075,Mn4 P8 O28,0.0,14
5076,Dy1 H9 C5 N2 O8,4.5207,5
5077,Li4 Al4 H64 C16 N16,3.6569,80
5078,K4 Bi2 H10 C10 O20,4.112,15
5079,Ti2 H24 N4 O8 F12,3.8263,14
5080,Li4 Mn4 P16 O48,0.0,134
5081,Mn6 P8 O32,0.11699999999999999,4
5082,Li4 Cr4 P8 O28,1.9503000000000001,14
5083,Li4 Fe4 P16 O52,0.0,1
5084,Ni10 P16 O56,0.0,2
5085,Rb10 Na1 Al11 Si13 O48,2.1539,1
5086,Mg16 Fe16 O40,0.3287,1
5087,K12 H12 S12 N4 O46,5.0752,15
5088,H20 C4 S4 O20 F12,6.1345,14
5089,Th4 H80 C16 S8 N32 O60,0.28190000000000004,15
5090,Mg16 Si8 H1 O32,0.0,6
5091,Sb24 H12 C4 Cl52 O40,1.5069,14
5092,Rb9 Na2 Al11 Si13 O48,2.4145,1
5093,H40 S4 N8 O16,1.2048,14
5094,Zn2 H32 C12 S4 N8 Cl4,4.1405,15
5095,Cd1 H18 Se4 N4 O14,3.568,2
5096,Ti1,0.0,229
5097,Sm2 H24 N6 O30,2.2389,2
5098,Zn2 H32 C6 N16 O14,4.7905,9
5099,Ag4 B40 H104 C24 N4,3.8864,14
5100,Co4 H36 C16 N4 O24,2.7446,62
5101,V2 H14 C8 O16,1.8948,2
5102,Mn2 P4 H72 C24 N12 Cl4 O4,4.2192,15
5103,Tm4 Sb4 O14,1.4172000000000002,46
5104,Li2 Ti3 Bi1 O8,0.0,166
5105,Nb4 Ge4 O14,1.524,36
5106,As4 Au4 O12,0.3576999999999999,15
5107,Li2 Cu4 P2 O8,0.4894000000000007,1
5108,W8 N16,0.13649999999999984,61
5109,Li1 Fe1 S2,0.0,12
5110,Li12 Fe2 S8,0.0,8
5111,Rb6 Sn8 Au2,0.5680999999999998,59
5112,Li5 Nb2 Cu5 O12,0.0,5
5113,Li2 Nb2 P8 O24,0.8601000000000001,4
5114,Li4 Ti4 P8 O28,0.21780000000000044,14
5115,Li2 Cu4 P2 O8,0.4204000000000008,31
5116,Li30 Cu6 F36,1.6620000000000004,15
5117,Li7 Fe7 Si1 O16,1.4919,1
5118,Li4 Cu8 P4 O16,0.5485999999999995,62
5119,Li3 Mn2 V5 O12,0.47970000000000024,5
5120,Co2 C4 O12,0.6718000000000002,14
5121,Fe4 O7 F1,0.0,8
5122,Li3 Fe4 O8,0.0,1
5123,Co6 O6 F6,0.0,10
5124,Li4 Ni4 O4 F8,2.6154,14
5125,Ti3 Fe3 Sb2 O16,0.0,8
5126,Li8 Co3 Ni1 O8,1.9618,1
5127,Na12 Fe20 O32,1.1562999999999994,1
5128,Li4 V2 O4 F2,0.03739999999999988,10
5129,Na12 Ni4 O8,1.4455,136
5130,Fe8 O14 F2,0.0,4
5131,Fe12 O12 F12,0.3609,6
5132,Li4 Fe2 Cu3 Te3 O16,0.0,1
5133,Li7 Ti1 Fe3 P6 O24,1.0648,146
5134,Li6 Fe1 Co1 P2 C2 O14,0.0,6
5135,Li30 Fe8 O32,0.0,7
5136,Li2 Pr2 P2 C2 O14,0.3264,4
5137,Sb2 N6 O18 F6,0.3221000000000003,36
5138,Mn2 Co3 Te3 O16,0.034399999999999764,1
5139,Li2 Cr1 Co1 O4,0.0,119
5140,La7 Fe2 O16,0.0,8
5141,Li4 Ti3 Nb5 O16,0.0,8
5142,Li4 Mn1 Fe5 O12,0.26380000000000003,1
5143,O1 Ag2,0.0,164
5144,Li5 Nb2 Ni5 O12,0.016600000000000392,5
5145,Fe1 Co3 O8,0.0,160
5146,Fe3 Co5 O16,0.0,8
5147,Li4 Fe2 Ni4 O12,0.0,64
5148,Cr1 Sb1 O4,1.7929,10
5149,Ga8 Hg4 O16,0.10379999999999967,62
5150,Sm8 V8 O28,1.3499000000000003,2
5151,Li4 Ni2 Sn2 P4 O16,2.1033999999999997,11
5152,Mn3 V3 Te2 O16,0.7122999999999999,1
5153,Li2 Ti2 Nb2 O8,0.0,74
5154,Li4 Nb3 Fe3 Ni2 O16,0.5108000000000001,8
5155,Li3 Co2 Sb1 O6,0.5606999999999998,12
5156,Fe10 O6 F14,0.7847999999999997,1
5157,Cr3 Fe2 Sb3 O16,0.4525000000000001,8
5158,Fe10 O19 F1,0.0,1
5159,V3 Fe3 Te2 O16,1.5605,1
5160,Li9 Cu9 B9 O27,0.0,1
5161,V3 Cr3 Sb2 O16,1.1325000000000003,1
5162,Fe10 O19 F1,0.0,38
5163,Li2 As2 Nd1,0.0,164
5164,Fe6 O11 F1,0.0,6
5165,Li4 Cr2 Ni3 Sn1 P6 O24,1.9375,1
5166,Fe10 O19 F1,0.0,1
5167,Ti7 O8,0.0,8
5168,Fe4 O6 F2,0.0,6
5169,Fe6 O11 F1,0.0,38
5170,Fe6 O11 F1,0.0,5
5171,Fe6 O11 F1,0.0,8
5172,Fe6 O10 F2,0.0,2
5173,Fe6 O10 F2,0.0,4
5174,Fe8 O14 F2,0.0,4
5175,Fe8 O14 F2,0.0,7
5176,Fe8 O14 F2,0.0,38
5177,Fe8 O14 F2,0.0,9
5178,Fe8 O14 F2,0.0,8
5179,Co6 O5 F7,0.3749,1
5180,Li6 Cr3 Fe6 O18,0.09089999999999998,2
5181,O3 U1,1.6376000000000008,164
5182,Li24 V8 O8 F32,0.20639999999999992,1
5183,Si4 H84 C24 N8 O4 F20,5.644399999999999,14
5184,Fe7 Ni6 O16,0.9306999999999999,12
5185,Fe2 O4,0.0,136
5186,Ti2 Co3 Te3 O16,0.34540000000000015,8
5187,Fe6 O11 F1,0.0,1
5188,B2 Pt6,0.0,194
5189,Sc2 I4,0.0,136
5190,Rb2 Ge6,0.0,194
5191,Ru1,0.0,225
5192,Ho2 Cl4,0.0,136
5193,Lu2 Ga1 Tc1,0.0,225
5194,Sc1 Tc3,0.0,225
5195,Si2 Cr2 Tb1,0.0,139
5196,Y1 Zr1,0.0,187
5197,Zn3 Os1,0.0,139
5198,Zr1 H3,0.0,221
5199,Zn6 In2,0.0,63
5200,Sm1 Br1,0.0,187
5201,La1 Ho1 Ru2,0.0,225
5202,Sb1 Pt3,0.0,225
5203,K3 Sr1,0.0,139
5204,K2 Co2 H6 C6 O12,2.9743,15
5205,Nd1 Ge3,0.0,221
5206,K6 Sr2,0.0,194
5207,Ni1 Ag1 Te2,0.0,160
5208,Tb1 Zr1,0.0,187
5209,Sn1 Pb1 O3,1.7927,221
5210,Sm2 Ni4 Bi4,0.0,129
5211,Yb2 H4 Cl2 O4,0.0,11
5212,Sm6 Zn2,0.0,194
5213,Cs2 Tl1 Ga1 H6,0.3826999999999998,225
5214,Cu2 O4 F2,0.0,44
5215,Ti3 Al1,0.0,225
5216,Sc2 Al2,0.0,63
5217,Rb1 Sn1 S2,0.0,166
5218,Ca4 Cr8 Cu8 O32,0.5965000000000003,14
5219,Mg4 Ti8 O16,0.0,62
5220,Co1 S2,0.0,166
5221,Ca2 Cr4 S8,1.1301999999999999,141
5222,Mg1 Co4 S8,0.0,166
5223,Mg1 Ni4 S8,0.0,166
5224,Zn1 Ni4 S8,0.0,166
5225,Al2 Cr4 O8,0.0,166
5226,Y2 Fe4 O8,0.03869999999999996,166
5227,Ca3 Mn2 Ga2 O10,0.13439999999999985,1
5228,Mg1 Mn4 O8,0.0,8
5229,Mg1 Cr4 O8,0.0,8
5230,Ca2 Fe4 O8,1.6033,1
5231,V6 Zn1 Fe4 O24,0.0,2
5232,Al20 Cu12 Si24 O84 F24,0.19599999999999973,4
5233,Mg2 V4 S8,0.0,141
5234,Al4 Cu6 S12,0.0,122
5235,Y8 Mn12 O36,0.4923000000000002,4
5236,Mg2 V4 S8,0.0,227
5237,Ca3 Fe2 Sb2 O12,0.0,1
5238,Y14 Cu6 Si6 Se42,0.0,1
5239,Y8 Cr12 O36,0.0,1
5240,Mg4 Co2 Sb2 O12,0.7328999999999999,11
5241,Y1 Cr1 F5,2.5324,71
5242,Y6 Bi6 O18,2.0667000000000004,185
5243,Zn6 Co4 O14,0.2427999999999999,36
5244,Mg4 W4 F20,3.6712,14
5245,Zn4 Cu2 Sb2 O12,0.021800000000000264,11
5246,Ta2 Zn4 Ag2 O12,0.2766000000000002,11
5247,Zn6 Si8 Ni4 O28,0.5771999999999999,15
5248,Mg8 Ag16 O32,0.0,8
5249,Si4 W2 O12,3.1616,15
5250,Mg4 Cu8 O16,0.07920000000000016,1
5251,Zn6 Ni12 O24,0.0,8
5252,Ca8 Mn16 O32,0.0,8
5253,Zn8 Ni16 O32,0.0,1
5254,Zn3 Cr6 Fe4 O24,0.6947000000000001,2
5255,B1 Pd3 Dy1,0.0,221
5256,Zn8 Bi8,0.0,61
5257,Tl1 As1,0.0,216
5258,Mg1 H2,0.0,225
5259,Mn4 Al2 O8,0.0,166
5260,B1 Pd3 Nd1,0.0,221
5261,B1 Pd3 Tm1,0.0,221
5262,Sr1 Mg7,0.0,187
5263,Mg7 Ni1,0.0,187
5264,Sr1 Mg6 Ga1,0.0,38
5265,Ba1 Rh1 O3,0.0,221
5266,Ba1 Mn1 O3,0.0,221
5267,La1 Mg6 Cd1,0.0,38
5268,V2 N2,0.0,194
5269,Rb4,0.0,70
5270,Ta2 N1,0.0,164
5271,Si6 Ta10,0.0,193
5272,Zn8 Si4 O16,2.2529000000000003,14
5273,Li1 Mg6 Si1,0.0,38
5274,Ge4 Y2,0.0,141
5275,Mg6 Ti1 Cd1,0.0,38
5276,Mg6 Ti1 Cd1,0.0,38
5277,Ir1 O3,0.0,221
5278,Cu8 Se4,0.7572000000000001,96
5279,Mg6 Cd1 Ni1,0.0,38
5280,Mg6 Cd1 Ni1,0.0,38
5281,Mg6 Ga1 Ni1,0.0,38
5282,Mg6 Cu1 Bi1,0.0,38
5283,Mg6 Zn1 Sb1,0.0,38
5284,Ce1 Mg6 Zr1,0.0,38
5285,Mg6 Zn1 Cu1,0.0,38
5286,Mg6 Zn1 Cu1,0.0,38
5287,Sr1 Mg6 Zn1,0.0,38
5288,Li1 Mn1 Se2,0.0,156
5289,Mg6 Al1 Sb1,0.0,38
5290,Ca1 Mg6 Al1,0.0,38
5291,Ba1 Mg15,0.0,187
5292,K1 Li1 Mg14,0.0,187
5293,La1 Mg14 Ti1,0.0,38
5294,Na1 Mg14 Ti1,0.0,38
5295,Mg14 Nb1 Ga1,0.0,187
5296,Ba1 Mg14 Cd1,0.0,38
5297,Mg14 Nb1 Ga1,0.0,38
5298,Ba1 Mg14 Ga1,0.0,38
5299,Ce1 Mg14 Nb1,0.0,38
5300,La1 Mg14 Ga1,0.0,187
5301,La1 Mg14 Si1,0.0,38
5302,Li1 Mg14 Nb1,0.0,38
5303,Ba1 Li1 Mg14,0.0,38
5304,Te6 Mo1 W3 S2,0.0,156
5305,Te2 Mo2 W2 Se2 S4,0.0,156
5306,Te2 Mo2 W2 Se2 S4,0.0,156
5307,Sr1 Mg14 Zr1,0.0,38
5308,Y1 Mg14 Bi1,0.0,187
5309,Mg14 V1 Zn1,0.0,38
5310,Mg14 Fe1 Bi1,0.0,38
5311,Y1 Mg14 Si1,0.0,38
5312,Ba1 Y1 Mg14,0.0,187
5313,Y1 Mg14 V1,0.0,38
5314,Ba1 Mg14 Zn1,0.0,38
5315,Na1 Mg14 Mn1,0.0,38
5316,Hf1 Mg14 Al1,0.0,187
5317,Mg14 Al1 Cr1,0.0,187
5318,Mg14 V1 Sb1,0.0,38
5319,Mg14 V1 Bi1,0.0,187
5320,Mg14 V1 Ga1,0.0,38
5321,K1 Mg14 Sn1,0.0,38
5322,La1 Mg14 Sn1,0.0,187
5323,Mg14 Co1 Sb1,0.0,187
5324,Te6 Mo1 W3 S2,0.012700000000000156,156
5325,Ca1 Mg6 Cr1 O8,0.0,123
5326,Mg6 Cd1 Co1 O8,1.3152999999999997,123
5327,Ca1 Mg6 Co1 O8,1.7251000000000003,123
5328,Sr1 Mg14 Cr1 O16,0.16799999999999926,123
5329,Na1 Ce1 Mg14 O16,0.0,123
5330,Sr1 Mg14 Co1 O16,1.896,123
5331,Li1 Hf1 Mg14 O15,0.0,25
5332,Mg14 Zn1 Sn1 O16,0.33919999999999995,47
5333,Sr1 Mg14 Cu1 O16,0.0,123
5334,Mg14 Mn1 Sn1 O16,0.7448000000000006,123
5335,K1 Mg14 Mn1 O16,0.39559999999999995,47
5336,Sr1 Ca1 Mg14 O16,3.3379000000000003,123
5337,Y1 Hf1 Mg30 O32,0.1783999999999999,123
5338,Mg30 Al1 B1 O32,2.3999000000000006,123
5339,Ba1 Mg30 Al1 O32,0.4626999999999999,123
5340,Hf1 Mg30 Cd1 O32,0.49570000000000114,123
5341,Ba1 Sr1 Mg30 O32,3.8159999999999994,123
5342,Ca4 Mg2,0.0,187
5343,Ca2 Mg6,0.0,44
5344,Rb1 Mg30 W1 O32,3.1284,123
5345,Rb1 Mg30 W1 O32,2.5457,123
5346,Cs1 Mg30 Cr1 O32,2.8145,123
5347,Rb1 Na1 Mg30 O31,2.2343,25
5348,Li1 Mg30 B1 O31,1.995,99
5349,Rb1 Li1 Mg30 O31,2.2111,99
5350,K1 Hf1 Mg30 O31,0.0,25
5351,Rb1 Li1 Mg30 O31,2.2704,25
5352,Ba1 Mg30 Ti1 O32,0.0,123
5353,Ba1 Mg30 Ti1 O32,0.0,123
5354,Ca6 Cr12 O24,0.6429,8
5355,Ti2 W4 O16,2.4156,13
5356,Mo6 As8 O32,1.9565,14
5357,Mg2 Co4 O8,0.26690000000000014,88
5358,Mg2 Mo4 O14,3.6859,4
5359,Ca2 Mo4 O14,3.7247000000000003,4
5360,Mg8 Sn8 Bi8 O40,0.0,61
5361,Ca6 Cr12 Cu6 O42,0.2863,13
5362,Ca4 Cr6 O16,0.8584000000000003,186
5363,Sr4 Mn2 Al2 Cu4 O14,0.0,1
5364,Zn8 Fe8 Bi8 O40,0.0,61
5365,Ca3 Ta6 Fe4 O24,2.7559,2
5366,V4 Zn1 Cu3 O12,0.0,2
5367,Zn4 Cu4 Ni4 P8 O36,0.0,6
5368,Fe2 Ge4 O12,0.0,15
5369,Mg4 Si16 Ni4 O40,3.1467,130
5370,Mg4 Bi4 Sb4 O20,2.4699000000000004,14
5371,Zn2 Fe8 O12,0.6253000000000002,63
5372,Ca4 Bi4 Sb4 O20,2.5549999999999997,14
5373,La2 Mg2 V2 Fe2 O12,1.0621,7
5374,La2 Mg2 Cr2 Fe2 O12,0.7804000000000002,7
5375,La2 Fe2 Mo2 O12,1.3935000000000004,7
5376,Sb12 O28,0.0,62
5377,Zn4 Ni4 P8 W4 O36,0.0,1
5378,Mn4 Ge8 O24,0.6769000000000001,14
5379,Ba1 Ca1 Co4 O8,0.04380000000000006,162