Index,Composition,bandgap,spgN
7981,Li4 Nd2 P2 C2 O14,4.5289,11
7982,Tb2 Pr2 O8,0.0,15
7983,Li4 Bi2 S4,0.0,58
7984,Ba2 Y4 Br16,4.092499999999999,15
7985,Li4 Ti3 Sn5 O16,0.5792999999999999,8
7986,Na12 Cu2 O8,0.30889999999999995,137
7987,Lu1 Tl1 O2,1.2128999999999999,166
7988,Dy4 Ti2 O10,2.9314,15
7989,Zr8 N8 O4,1.6914999999999996,8
7990,Y4 Cu2 O7,1.5678999999999998,12
7991,Sc1 Tl1 O2,0.8223000000000003,166
7992,Lu4 Ge2 O10,3.4948000000000006,15
7993,Li2 Bi1 S2,0.0,8
7994,Li5 Cu3 Te2 O10,0.25479999999999947,2
7995,Li2 Bi2 B4 O10,3.3119,4
7996,Cu4 Sb8 O16,0.2979000000000003,135
7997,Li5 Zn4 B4 O12,0.0,1
7998,Zr2 Nb2 O8,0.0,15
7999,Tm4 Ge2 O10,3.4509999999999996,1
8000,Li2 Nb2 P8 O24,0.2745999999999995,15
8001,Li8 Ti4 P12 O40,0.14110000000000023,14
8002,Li4 Ti4 P16 O48,0.11630000000000029,14
8003,Li2 Nb2 P8 O24,0.2860999999999998,4
8004,Li4 Nb4 P16 O48,1.0876000000000001,14
8005,Li12 Ti8 P12 O48,0.010200000000000209,230
8006,La16 Cu8 O31,0.25259999999999927,1
8007,Li2 Cu3 F8,0.1916,1
8008,Li24 Cu24 P24 O96,0.0,170
8009,Li4 Ti4 P16 O48,0.13959999999999972,14
8010,Li24 Cu24 P24 O96,0.0,169
8011,Nb12 O8 F20,0.6020000000000001,58
8012,O6 Ti2 Hg2,1.3445999999999998,167
8013,Li9 Ti18 O36,0.0,1
8014,Li4 Co2 Cu3 Sb3 O16,0.0,1
8015,Li16 Cr8 Si8 O32,2.448,29
8016,Co11 Cu1 O16,0.0,10
8017,Cr3 Co3 Sb2 O16,0.0,1
8018,Fe3 Co3 Te2 O16,0.0,1
8019,Li4 Cu7 P6 O24,0.0,8
8020,Li6 Ni6 P6 O24,3.0820999999999996,159
8021,Ni2 P4 H32 O20,5.0309,15
8022,Li2 Co2 Si2 O8,1.2657,9
8023,Ti3 Co3 Sb2 O16,0.10679999999999978,1
8024,Li2 Fe2 Ni2 O8,0.0,15
8025,Li4 Mn10 Fe4 O24,0.6372,4
8026,Li1 Ti2 Co3 O10,0.18979999999999997,1
8027,Li4 Mn2 V4 O12,0.8170000000000002,2
8028,Li2 V1 O2 F1,1.1729999999999996,12
8029,Li8 Co4 O12,1.1537,136
8030,Li8 V4 O8 F4,1.1250999999999998,1
8031,Li8 V4 O8 F4,1.0705,1
8032,V4 Fe1 O12,0.0,5
8033,Li4 Co3 Cu2 Sb3 O16,0.0,1
8034,Yb8 W12 O48,0.0,60
8035,Li12 V8 O16 F8,0.7083999999999999,8
8036,Li8 V4 O8 F4,1.1166,1
8037,Li1 Cr2 Co1 O6,0.4902000000000002,1
8038,V8 Ni4 H24 N8 O24,2.206,62
8039,Li4 Ti3 V1 O8,0.0,6
8040,Li2 Fe6 O12,0.4218000000000002,1
8041,Co6 O6 F6,0.0,4
8042,Co6 O7 F5,0.0,6
8043,Li5 V1 Cr3 O8,0.6195000000000004,166
8044,Li8 Co12 O4 F24,1.6904,1
8045,Li8 Mn8 O8 F16,0.8498,1
8046,Li4 Mn4 F14,0.1708,15
8047,Li14 Mn2 O6 F6,2.7466,1
8048,Li6 Mn2 O4 F2,1.8572,2
8049,Li8 Mn16 O4 F32,1.2026000000000001,1
8050,Li4 V12 Co8 O48,0.2202,14
8051,Li4 Fe14 O8 F16,1.5197,1
8052,Li8 V4 O8 F8,1.3206,7
8053,Li3 Fe4 O8,0.2439,5
8054,Li12 V8 O16 F8,0.5607000000000002,10
8055,Li2 Co2 Si2 O8,1.5515,1
8056,Li8 Nb1 Ni3 P6 O24,0.2894999999999994,146
8057,Li10 V6 Cu2 P8 O32,1.4693000000000005,8
8058,Li5 Ni3 O5 F3,0.504,1
8059,Na1 V3 O6,0.8350000000000004,5
8060,Li6 V2 O4 F4,0.46069999999999967,13
8061,Li3 V3 Cr1 O8,0.1876000000000002,1
8062,Na1 V5 O8,0.0,1
8063,Li8 V4 O12 F4,2.3131999999999997,1
8064,Li4 V4 F14,0.21399999999999975,74
8065,Li10 Ti3 Mn5 O16,0.8626999999999998,1
8066,Li2 Ni4 O2 F6,2.4959,164
8067,Li4 V4 F14,0.0,15
8068,Li6 V4 F24,0.03639999999999999,14
8069,Co1 Ag1 O2,0.2622,166
8070,Li6 Mn10 O4 F18,1.7742,1
8071,Li12 Ni12 P12 O48,2.9376,33
8072,Cr4 O4 F4,2.149,19
8073,Li4 Ti15 O32,2.0055,160
8074,Li4 Mn2 O4 F2,0.7828999999999997,12
8075,Li12 Mn2 O4 F8,2.6568,2
8076,Li4 V2 Si2 O8,1.5185000000000004,7
8077,Li2 Mn3 Fe3 O12,0.10449999999999982,2
8078,Li6 Fe4 P4 O20,0.0,64
8079,Ti3 Mn2 Co3 O16,0.03880000000000017,1
8080,Li13 Co15 O28,0.03799999999999981,2
8081,Li28 Sb8 S8,0.0,33
8082,Li16 Fe2 S12,0.0,8
8083,Li4 Cu2 H28 C8 N12 O16,0.7784000000000002,14
8084,Nb2 V2 O8,1.3470000000000004,88
8085,Li7 Nb2 Fe3 O16,0.0,1
8086,Ta2 Fe2 O8,1.8831999999999995,15
8087,Li12 Cr4 B4 O20,1.9829,33
8088,Li6 Ti2 B4 O12,0.14990000000000014,2
8089,Li6 Cr6 Fe2 O16,0.0,2
8090,Li8 V4 B4 O16,2.0372000000000003,62
8091,Li32 Mn8 O28,0.9121999999999999,14
8092,Li4 Ti2 Cr3 Fe3 O16,0.0,8
8093,Li2 Al2 Cr2 O6,1.9811,2
8094,Rb12 Pb4 O12,0.15280000000000005,14
8095,Li8 Al4 Fe4 O16,2.3434,14
8096,Li12 Mn2 Al2 O12,0.9731000000000001,1
8097,Li3 V5 O14,2.3933,157
8098,Ti3 Nb2 V3 O16,1.1099999999999999,1
8099,Li4 Cr5 Fe1 O12,0.021399999999999864,12
8100,Cr10 Fe5 O24,0.0,8
8101,Ti10 Sb10 O34,0.0,7
8102,Li5 Nb2 Ni3 O10,0.4195000000000002,2
8103,Li4 Ti5 V1 O12,0.0,1
8104,Li4 Fe8 O16,0.0,9
8105,Nb2 V6 O16,1.1509999999999998,9
8106,Li6 Fe6 O16,0.0,186
8107,Li4 Ti6 Sn2 O16,0.0,186
8108,Li3 Co4 Te1 O8,0.0,12
8109,Li6 Nb14 O38,2.0609,176
8110,F4 Na1 Al1,5.776199999999999,123
8111,Mg8 Fe4 O16,0.0,14
8112,Nb2 Fe2 P4 O16,0.09030000000000005,11
8113,Li8 Ti4 Nb12 O32,0.0,1
8114,Li4 Fe3 Te1 O12,0.0,3
8115,Li4 Cu8 P4 O16,0.6086,1
8116,Cr6 Sb2 O16,0.5591999999999997,9
8117,Li5 Ni3 Sb2 O10,0.5954999999999995,2
8118,Al2 Cr4 O8,0.0,141
8119,Li4 Fe1 Co3 O8,0.9078,1
8120,Li8 Co4 O12,1.1577,58
8121,Li8 Fe2 O6 F2,2.4999,1
8122,Ti12 Fe5 O32,0.0,146
8123,Li4 Co1 Ni5 P6 O24,0.0,1
8124,Li10 Ti2 Fe3 Ni3 O16,1.553,1
8125,Li2 V1 O2,1.9118000000000004,164
8126,Li8 Cu8 B8 O24,0.2359,61
8127,Li4 Nb3 Cu3 Te2 O16,0.0,8
8128,Li4 Mn2 Cr4 O12,1.2518000000000002,64
8129,Na2 Mn2 O4,0.0,1
8130,Li12 Fe3 O3 F15,2.9748,144
8131,Mn3 Nb2 Fe3 O16,0.0,1
8132,Li4 Cr3 Cu2 Sb3 O16,0.0,8
8133,Li4 Fe3 Co2 Sn3 O16,0.0,8
8134,Li4 Mn2 Nb3 Co3 O16,0.5815999999999999,8
8135,Li4 V2 Cr1 Te1 O12,0.7803,1
8136,Li4 Cr3 Ni2 Sn3 O16,0.8386,8
8137,Ti6 Nb2 O16,0.0,186
8138,Li2 Fe2 F8,4.077500000000001,63
8139,Li4 Ti1 V5 O12,0.2466999999999997,12
8140,Li24 Fe8 F40,4.2154,61
8141,Li8 Fe4 O8 F4,2.083,1
8142,Li4 Nb2 Co3 Sb3 O16,0.0,1
8143,Ti3 Mn2 Cr3 O16,0.8807999999999998,1
8144,Li8 Fe8 F32,4.2363,61
8145,Li4 Fe2 F8,3.4779999999999998,63
8146,Li4 Fe4 F16,4.0954,14
8147,Li4 Mn2 F8,3.871,12
8148,Li8 Mg1 Co13 O28,0.33929999999999993,1
8149,Li4 Fe4 F20,0.8242000000000003,57
8150,Li8 Fe8 F32,0.0,62
8151,Li4 Cu2 Bi2 P4 O16,0.6624999999999996,11
8152,Na32 Cu8 O28,0.016699999999999937,14
8153,Li12 Mn4 F20,4.3604,19
8154,Li2 Cu10 P4 O16,0.4392000000000005,1
8155,Fe6 O8 F4,0.0,38
8156,Li4 Co4 O4 F8,1.076,15
8157,Li8 Fe2 O6 F2,2.6018,1
8158,Li8 Co2 O6 F2,1.3903999999999999,1
8159,Li10 Co8 O16,0.5904000000000003,1
8160,Fe6 O10 F2,0.0,12
8161,Li8 Cu4 P12 O36,1.3742,19
8162,Li8 Cu8 P16 O48,1.0178000000000003,14
8163,Sr6 Li6 Cu6 P8 O32,1.5304000000000002,7
8164,Li4 V3 Fe2 Ni3 O16,0.5396999999999998,1
8165,Co8 O12 F4,0.0,12
8166,Fe6 O10 F2,0.0,12
8167,Li2 Cu4 P6 H16 O26,1.1538000000000004,2
8168,Li1 Ti1 V3 O8,0.8689999999999998,2
8169,O6 Al2 Y2,3.4964999999999997,194
8170,Na4 S2,1.681,194
8171,F1 K1,6.3537,221
8172,Ti4 Cd2 O10,2.5113,63
8173,Li3 V6 Cr3 O18,1.1219,12
8174,Na8 Cr2 O6,0.0,9
8175,Li10 Co4 Si4 O20,0.23460000000000014,7
8176,Co6 O7 F5,0.0,1
8177,Li4 Mn8 P16 O56,0.033399999999999985,1
8178,Li3 V6 O3 F15,1.6473999999999998,1
8179,H24 Pt2 C12 N12 O16,1.7757,14
8180,Li2 Co2 O2 F4,0.22899999999999998,1
8181,Na14 Cr4 O12,0.20100000000000007,15
8182,Li6 Co6 O5 F11,0.2398,1
8183,Fe6 O10 F2,0.0,2
8184,Li4 Co2 O2 F6,0.9458,5
8185,Co8 O8 F8,0.0,5
8186,Li4 Fe3 Sn2 Sb3 O16,0.0,1
8187,Li8 V2 F12,2.4728,9
8188,Li12 V2 O6 F6,2.1071999999999997,1
8189,Cs4 V4 Ga4 P8 O40,0.6576,14
8190,Ho1 Th1 Tc2,0.0,225
8191,Ho2 Co1 Os1,0.0,225
8192,Eu6 P2,0.0,194
8193,La6 Mn2 W2 S6 O12,0.0,176
8194,Sr1 Os1 O3,0.0,221
8195,Na2 Si4 B2 H4 O14,4.0496,4
8196,V16 Fe1 O41,0.5242,25
8197,Li14 Co4 O12,0.28689999999999993,15
8198,U30,0.0,136
8199,O6 Si1 Ca2 Ti1,2.3633999999999995,225
8200,O8 Zr4,2.8574,62
8201,Fe1 Re1,0.0,187
8202,K1 Sr3,0.0,139
8203,Rb3 Cd1,0.0,221
8204,Hf1 H3,0.0,221
8205,Tl1 Au3,0.0,139
8206,Sr1 Ag1 O3,0.0,221
8207,Rb3 Cd1,0.0,139
8208,Au2 S2,0.0,186
8209,Ag3 Ge1,0.0,225
8210,Ce3 Dy1,0.0,139
8211,Rb2 S1 Cl6 F1,0.0,225
8212,Na2 Cl1,0.0,166
8213,Li4 Fe3 Co3 O12,0.5225999999999997,2
8214,Ca1 Tc1 O3,0.0,1
8215,Na2 Mo2 O6,0.0,161
8216,Mn2 Si1 Ni1,0.0,216
8217,Ca2 Cu4 Ge8 O24,0.11820000000000008,4
8218,Al2 Co4 O8,0.13090000000000046,166
8219,Ca4 Cu2 Ir2 O12,0.0,5
8220,Mg2 V4 O10,2.1854000000000005,59
8221,Ca2 Fe4 O8,0.9051999999999998,1
8222,Ca8 Fe8 Si12 O48,0.0,142
8223,V4 Zn1 O8,0.6769999999999996,1
8224,Ca1 Cr4 O8,0.2596000000000003,8
8225,Mg8 V8 Si12 O48,1.7748000000000004,142
8226,Mg4 Cu2 Sb2 O12,0.2840999999999996,11
8227,Ca1 Co4 S8,0.0,166
8228,La2 Mg1 Bi1 O6,0.0,148
8229,Zn4 Sn4 O8,1.6448,2
8230,Mg4 Ni2 Sb2 O12,0.2073999999999998,11
8231,Mn2 Nb4 Zn2 O16,1.1857,5
8232,Y4 Cr12 O36,0.6439999999999999,1
8233,Mg2 Bi2 F10,4.2701,1
8234,V4 Zn1 O10,1.0625999999999998,25
8235,Zn2 Co2 F8,3.1785,1
8236,Ti4 Zn4 F20,0.21050000000000013,14
8237,Mg6 Ni4 O14,0.6126999999999998,36
8238,Ti4 Zn4 O12,2.4888000000000003,62
8239,Ta2 V2 Zn4 O12,1.5040000000000004,11
8240,Ta2 Zn4 Fe2 O12,2.217,11
8241,Ca4 Ta2 W2 O12,1.2885,11
8242,Ge12 W8 O48,2.8925,230
8243,Zn6 Fe4 Si8 O28,2.0643000000000002,15
8244,Mg4 Ti2 W2 O12,1.7011000000000003,14
8245,Zn4 Cu2 W2 O12,0.3713000000000002,14
8246,V16 Zn8 O32,1.1690000000000005,8
8247,Ca8 Sn16 O32,1.5293,8
8248,Ti2 P4 O14,2.2794,2
8249,Mg2 Cu4 O8,0.0,2
8250,Ca2 Ni1 W1 O6,3.2588000000000004,1
8251,Ca6 Fe12 O24,1.7102999999999997,1
8252,Cr2 Ge4 O12,0.6371,15
8253,K2 Mn2 O4,2.2201,58
8254,In1 Ag1 Se2,0.0,166
8255,Ni1,0.0,229
8256,Cr3 N2,0.0,139
8257,Cr12 N16,0.0,62
8258,La1 Mg3,0.0,221
8259,Mg6 Cd1 Sb1,0.0,38
8260,Mg6 Ga1 Sb1,0.0,38
8261,Cs1 H1 S1 O3,5.8302000000000005,160
8262,Sm2 Co2 P2,0.0,129
8263,La4 N4 O16,1.3265000000000002,62
8264,In3 Sb1,0.0,221
8265,Y1 Mg6 Zn1,0.0,38
8266,Y1 Mg6 Sn1,0.0,38
8267,Ca1 Mg6 Ga1,0.0,38
8268,Mg15 V1,0.0,187
8269,Te2 W2 S2,0.0,156
8270,Li2 Al2 Pt2,0.0,194
8271,Ce2 Al1 N1 O3,0.0,107
8272,Tl2 Cd1 Te4,0.0,121
8273,Ti1 Ni2 Sb1,0.0,225
8274,Mg14 Ti1 Ga1,0.0,38
8275,Na1 Mg14 Ti1,0.0,187
8276,Mg14 Cr1 Bi1,0.0,38
8277,Mg14 Nb1 Cd1,0.0,38
8278,Mg14 Si1 Bi1,0.0,38
8279,Na1 Sr1 Mg14,0.0,187
8280,Mg14 Si1 Sb1,0.0,187
8281,Na1 Mg14 Si1,0.0,187
8282,La1 Mg14 Bi1,0.0,38
8283,Mg14 Cu1 Si1,0.0,187
8284,Sr1 Mg14 Cu1,0.0,38
8285,Hf1 Mg14 Cu1,0.0,187
8286,Hf1 Mg14 Cu1,0.0,38
8287,Te2 Mo1 W3 S6,0.0,156
8288,Te2 Mo2 W2 S6,0.0,156
8289,Te6 Mo3 W1 S2,0.03149999999999986,156
8290,Te2 Mo1 W3 S6,0.0,156
8291,Te6 Mo3 W1 S2,0.06469999999999976,156
8292,Te2 Mo3 W1 S6,0.0,156
8293,Te2 Mo2 W2 S6,0.0,156
8294,Te2 Mo2 W2 S6,0.0,156
8295,Te2 Mo3 W1 S6,0.0,156
8296,Mg14 Cu1 Ni1,0.0,187
8297,Mg14 Ti1 Cu1,0.0,187
8298,Mg14 Ti1 Cu1,0.0,38
8299,Mg14 Zr1 Nb1,0.0,38
8300,Mg14 Co1 Sn1,0.0,38
8301,Mg14 Fe1 Sn1,0.0,38
8302,Te6 Mo3 W1 S2,0.0,156
8303,Y1 Hf1 Mg14,0.0,187
8304,Mg14 Zn1 Co1,0.0,187
8305,Y1 Mg14 Ti1,0.0,187
8306,Mg14 Zn1 Co1,0.0,38
8307,Sr1 Y1 Mg14,0.0,38
8308,Y1 Mg14 Mn1,0.0,187
8309,Mg14 Zr1 Al1,0.0,187
8310,Ce1 Mg14 Mn1,0.0,38
8311,Mg14 V1 Cd1,0.0,187
8312,Mg14 V1 Sn1,0.0,38
8313,La1 Mg14 Ni1,0.0,38
8314,Mg14 Ga1 Co1,0.0,187
8315,Te4 W4 S4,0.0,156
8316,Te4 W4 S4,0.0,164
8317,Te4 W4 S4,0.0,156
8318,Te4 W4 S4,0.0,164
8319,Te2 Mo1 W3 S6,0.04600000000000026,156
8320,Te2 Mo1 W3 S6,0.0,156
8321,Te2 Mo1 W3 S6,0.0,156
8322,Cs4 Co4 N4,0.0,62
8323,Te2 Mo2 W2 S6,0.0,156
8324,Te6 Mo3 W1 S2,0.044700000000000184,156
8325,Te6 Mo3 W1 S2,0.011800000000000033,156
8326,Te6 Mo3 W1 S2,0.01670000000000016,156
8327,Na1 Mg6 Cr1 O8,0.6704999999999997,123
8328,Li1 Mg6 W1 O8,1.3883,123
8329,Ca1 Mg6 Cd1 O8,1.7076000000000002,123
8330,Mg6 Fe1 Ni1 O8,1.8474000000000004,123
8331,Mg6 Fe1 Co1 O8,0.0,123
8332,Na1 Y1 Mg6 O8,3.7104999999999997,123
8333,Sr1 Mg14 V1 O16,0.8858000000000006,47
8334,Na1 Li1 Mg14 O15,1.9830999999999994,25
8335,Y1 Mg14 Cu1 O16,0.0,47
8336,Mg30 V1 Bi1 O32,0.0,123
8337,Mg30 V1 Bi1 O32,0.05370000000000097,123
8338,Mg30 Fe1 Si1 O32,1.8509000000000002,123
8339,Mg30 Fe1 Si1 O32,0.0,123
8340,Mg30 Cr1 Bi1 O32,0.0,123
8341,Sr1 Mg30 Nb1 O32,0.0,123
8342,Mg4 Bi8,0.0,12
8343,Ca4 Zn12,0.33020000000000005,225
8344,Mg6 Bi2,0.0,44
8345,Ce4 Mg8,0.0,15
8346,Mg30 Cr1 Si1 O32,1.9655999999999993,123
8347,K1 Hf1 Mg30 O31,0.6804999999999994,25
8348,Li1 Mg30 B1 O31,2.549200000000001,25
8349,Zn6 Cr12 O24,0.9653,156
8350,Ho2 Mg2 Co4 O12,0.0,7
8351,Zn2 Cu6 P6 O26,0.0,11
8352,Be12 Si12 Bi8 O48,3.3148,14
8353,Zn8 Si16 Sn8 O48,3.0589000000000004,61
8354,Mg2 Ag4 O8,0.0,74
8355,Zn8 Cu8 Si16 O48,0.3477999999999999,61
8356,Mo2 W4 O16,1.0847000000000002,13
8357,Mg4 V8 O16,1.3749000000000002,57
8358,Mg4 Fe8 O16,1.0187000000000004,57
8359,Mg8 Bi8 Sb8 O40,1.3769,61
8360,Ca4 V6 O16,1.6111,186
8361,Ge4 Sb2 O12,0.0,15
8362,La2 Te1 O6,3.454399999999999,148
8363,Zn1 Fe4 Cu3 O12,0.0,204
8364,Ca2 Ge4 W2 O12,2.147,15
8365,Mn2 Ge4 O12,0.6012000000000001,15
8366,Ca4 Ni4 P8 W4 O36,0.0,1
8367,Ca2 Ti2 Bi2 P6 O24,1.1193,161
8368,Mg2 Ti2 Bi2 P6 O24,1.8867000000000003,161
8369,Ca4 Sn4 Bi4 O20,0.0,14
8370,La2 Zn2 Fe2 Bi2 O12,0.0,7
8371,La2 Zn2 Fe2 Ag2 O12,0.1311,7
8372,Mg4 Ni4 Bi4 O20,0.6899000000000002,14
8373,W12 O28,0.0,62
8374,Pr2 Mg2 Ni4 O12,0.0,31
8375,Bi8 P8 O32,3.0004,15
8376,Y1 Sn1 W2 O8,1.9086999999999996,1
8377,Al4 Co12 O24,0.0,12
8378,Ca4 Ta4 Sn2 O16,2.8545,1
8379,Sr2 Ti2 P4 O16,2.3476,2
8380,Ca4 Ta4 Co2 O16,2.733,1
8381,Ba2 Y1 Tl1 Co2 O7,0.0,99
8382,Sr2 Fe2 P4 O16,0.0,2
8383,Mg2 Cu8 O12,0.0,63
8384,Mg2 Co2 P2 O10,0.13090000000000002,1
8385,Mg2 Cr2 Si2 O10,0.5706000000000002,1
8386,Ca2 Bi4 O8,1.6968,1
8387,Ca4 Nb4 Ni2 O16,3.0818999999999996,2
8388,Ca2 Cu4 O8,0.5792999999999999,141
8389,Ba2 Y1 Cr3 O8,0.0,123
8390,Mg1 Ti4 O8,0.0,8
8391,Mg4 Ti2 Nb4 O16,0.0,1
8392,Mg4 Ta2 Nb4 O16,0.1711999999999998,1
8393,Sr4 Al2 Ga2 Fe4 O14,1.2763999999999998,1
8394,Rh1 Sb1 U1,0.0,216
8395,Dy2 Sn2 Au2,0.0,194
8396,La4 Ni4 O10,0.5829999999999993,46
8397,Ba24 Sr8 Co4 Cu28 O80,0.0,1
8398,Sr2 Ca6 Fe1 Co7 O24,0.0,38
8399,La7 Sm1 Mn7 Fe1 O24,0.0,160
8400,La28 Sm4 Co24 Ag8 O80,0.0,1
8401,Re2 N4,0.0,8
8402,Sr1 Ca7 Ti1 Mn7 O24,0.0,160
8403,U2 Re2 C3,0.0,12
8404,U3 Al3 Co3,0.0,38
8405,H6 W2,0.0,11
8406,Te2 Mo2 W2 S6,0.025599999999999845,156
8407,Te2 Mo2 W2 S6,0.0,156
8408,Mn16 H16 O32,0.0,1
8409,Ce4 Se8,0.9938,227
8410,U3 Al3 Ni1 Ru2,0.0,189
8411,Al2 Co6,0.0,194
8412,Ca2 B2 O6,0.4137,11
8413,Li2 H4 N2,2.7714999999999996,9
8414,Na1 P1 H6,1.0907,225
8415,Mg6 Sn6,0.0,8
8416,Mg3 Sn3,0.0,156
8417,Mg6 Ti6,0.0,38
8418,Mg1 Zn5,0.0,187
8419,Mg2 Ga4,0.0,187
8420,Mg1 Zr1,0.0,221
8421,Ba2 V1 Fe1 O6,1.0780999999999996,12
8422,Ba1 Nb4 Fe2 O14,2.8389,2
8423,Ba4 Cu4 O10,0.0,5
8424,Li4 Co4 O8,0.36850000000000005,2
8425,Li12 Mn16 O32,0.3299000000000003,1
8426,La1 Mg3,0.0,25
8427,Ce1 Mg14 Cu1,0.0,187
8428,Ba16 Sr16 Co8 Cu24 O80,0.0,1
8429,Li9 Mn2 Co5 O16,0.0,6
8430,Li9 Mn2 Co5 O16,0.03559999999999963,6
8431,Li9 Mn2 Co5 O16,0.0,6
8432,Li9 Mn2 Co5 O16,0.0,6
8433,Li9 Mn2 Co5 O16,0.17810000000000015,6
8434,Li9 Mn2 Co5 O16,0.0,6
8435,Li9 Mn2 Co5 O16,0.0,8
8436,Li9 Mn2 Co5 O16,0.02760000000000007,8
8437,Li9 Mn2 Co5 O16,0.0,8
8438,Li9 Mn2 Co5 O16,0.0,8
8439,Li9 Mn2 Co5 O16,0.0,8
8440,Li9 Mn2 Co5 O16,0.0,8
8441,Li9 Mn2 Co5 O16,0.0,10
8442,Li9 Mn2 Co5 O16,0.3317000000000001,10
8443,Li9 Mn2 Co5 O16,0.3631000000000002,10
8444,Li9 Mn2 Co5 O16,0.0,10
8445,Li9 Mn2 Co5 O16,0.0,12
8446,Li9 Mn2 Co5 O16,0.0,12
8447,Li9 Mn2 Co5 O16,0.0,12
8448,Li9 Mn2 Co5 O16,0.0,12
8449,Li9 Mn2 Co5 O16,0.0,8
8450,V12 O4 F28,1.1369,62
8451,V4 O1 F12,0.0,1
8452,V18 O44,1.0747,1
8453,Nb2 V6 O16,1.1257000000000001,9
8454,Li4 Ni12 P16 O60,0.0,7
8455,Li2 Ni10 P16 O56,0.0,2
8456,Nb4 O10,2.5979,11
8457,Na2 Fe22 O34,0.7158,1
8458,Ta12 In4 O36,2.0169,62
8459,Ta2 In6 O14,1.3583999999999996,2
8460,Ti4 H6 Pd2,0.0,123
8461,Ga8 Au4,0.0,62
8462,Si2 Lu1,0.02259999999999973,191
8463,Zr8 Ni2 P2,0.0,124
8464,Cd4 Sn2 O8,0.11099999999999977,227
8465,Eu8 S12,0.0,62
8466,Rb2 Ga1 Au1 F6,0.7836000000000001,225
8467,K2 Rb1 Sb1 Br6,2.8386000000000005,225
8468,Rb2 Pr1 Cu1 I6,1.7961,225
8469,K3 Pr1 F6,5.399699999999999,225
8470,K3 Ga1 Cl6,3.3567,225
8471,K2 Pr1 Cu1 Br6,2.0495,225
8472,K3 Nd1 I6,3.1746,225
8473,K3 Ce1 I6,0.2764000000000002,225
8474,K2 Li1 Nb1 F6,0.0,225
8475,K2 Rb1 Pd1 F6,0.0,225
8476,Na2 Tl1 Ag1 F6,0.1359,225
8477,Na2 Ag1 Ru1 F6,0.0,225
8478,K3 In1 I6,1.2778,225
8479,Rb2 In1 Au1 I6,0.0,225
8480,Rb2 Hg1 Sb1 F6,0.0,225
8481,Cs1 K2 Ti1 F6,0.0,225
8482,K2 Sc1 Au1 I6,1.0655999999999999,225
8483,K2 Tl1 Au1 I6,0.0,225
8484,Cs2 Dy1 Au1 Cl6,2.0082,225
8485,Na2 Li1 Tm1 Cl6,4.0096,225
8486,Cs2 Nd1 Au1 Cl6,2.1458,225
8487,Rb2 Hg1 Au1 F6,0.0,225
8488,Ca2 Ta1 W1 O6,2.21,1
8489,Cu4 Se2 S6,0.5793999999999997,9
8490,Cs2 Co2 O4,0.19919999999999982,227
8491,Nb1 Cu6 O8,0.0,225
8492,Ba1 Au1 O2,0.0,123
8493,N8 Si6,4.026700000000001,220
8494,Sc6 Nb2 O14,2.6657,1
8495,Li4 Mn2 Co2 O8,0.0,166
8496,Li6 Mn2 Co2 O10,0.0,8
8497,Li6 Mn2 Co2 O10,0.07580000000000009,8
8498,Li6 Mn2 Co2 O10,0.0,8
8499,Li6 Mn2 Co2 O10,0.01670000000000016,12
8500,Li8 Co6 O14,0.4485999999999999,2
8501,Li6 Mn2 Co2 O10,0.0,12
8502,Li6 Mn2 Co2 O10,0.22280000000000033,8
8503,Li5 Mn2 Co1 O8,0.0,10
8504,Li5 Mn2 Co1 O8,0.0,10
8505,Li8 Co6 O14,0.0,12
8506,Li8 Co6 O14,0.0,12
8507,Li5 Mn2 Co1 O8,0.0,8
8508,Li8 Mn2 Co4 O14,0.6367000000000003,2
8509,Li8 Mn2 Co4 O14,0.26239999999999997,12
8510,Li5 Mn3 O8,0.0,12
8511,Li8 Mn2 Co4 O14,0.07819999999999983,12
8512,Li8 Mn2 Co4 O14,0.0,12
8513,Li7 Mn2 Co3 O12,0.0,12
8514,Li8 Mn2 Co4 O14,0.0,12
8515,Li8 Mn2 Co4 O14,0.12870000000000026,1
8516,Li8 Mn2 Co4 O14,0.0,8
8517,Li8 Mn2 Co4 O14,0.2799999999999998,8
8518,Li8 Mn2 Co4 O14,0.0,8
8519,Li8 Mn2 Co4 O14,0.0,8
8520,Li8 Mn2 Co4 O14,0.0,8
8521,Li8 Mn2 Co4 O14,0.18659999999999988,8
8522,Li7 Mn2 Co3 O12,0.0,5
8523,Li7 Mn2 Co3 O12,0.0,10
8524,Li7 Mn2 Co3 O12,0.0,8
8525,Li7 Mn2 Co3 O12,0.28290000000000015,8
8526,Li7 Mn2 Co3 O12,0.38180000000000014,6
8527,Li7 Mn2 Co3 O12,0.25360000000000005,6
8528,Li7 Mn4 Co1 O12,0.0,2
8529,Li7 Mn4 Co1 O12,0.0,2
8530,Li9 Co7 O16,0.0,2
8531,Li9 Co7 O16,0.3199000000000001,2
8532,Li9 Co7 O16,0.23830000000000018,2
8533,Li9 Mn2 Co5 O16,0.14829999999999988,2
8534,Li9 Mn2 Co5 O16,0.0,2
8535,Li9 Mn2 Co5 O16,0.0,2
8536,Li9 Mn2 Co5 O16,0.15979999999999972,1
8537,Li9 Mn2 Co5 O16,0.0,2
8538,Li9 Mn2 Co5 O16,0.2603000000000004,1
8539,Li9 Mn2 Co5 O16,0.0,1
8540,Li9 Mn2 Co5 O16,0.3521000000000001,1
8541,Li9 Mn2 Co5 O16,0.07340000000000035,1
8542,Li9 Mn2 Co5 O16,0.0,1
8543,Li9 Mn2 Co5 O16,0.1870999999999996,1
8544,Li9 Mn2 Co5 O16,0.26339999999999986,1
8545,Li9 Mn2 Co5 O16,0.2784,12
8546,Li9 Mn2 Co5 O16,0.36719999999999997,1
8547,Li9 Mn2 Co5 O16,0.33199999999999985,12
8548,Li9 Mn2 Co5 O16,0.0,12
8549,Li9 Mn2 Co5 O16,0.2711000000000001,3
8550,Li9 Mn2 Co5 O16,0.0,12
8551,Mn2 Cr3 Co3 O16,0.21029999999999993,1
8552,Li4 Nb4 P4 O20,0.0,15
8553,Li1 Fe2 Co2 O8,0.0,2
8554,Li1 Cu5 P2 O8,0.49549999999999983,6
8555,Li2 Cu4 P2 O8,0.7577000000000007,1
8556,Li2 Co2 P4 O14,0.5823,9
8557,Li6 Mn3 Sb1 P6 O24,1.9968000000000001,1
8558,Li15 Fe3 O3 F15,4.3386,144
8559,Li4 Ti2 V3 Co3 O16,0.4692999999999996,1
8560,Li4 Nb2 Fe3 Sb3 O16,0.0,1
8561,Li4 Nb3 Ni3 Sn2 O16,0.2839999999999998,8
8562,Li4 Mn5 Sb1 P6 O24,0.01670000000000016,1
8563,Li4 Mn3 Cr2 Sn1 P6 O24,1.9009000000000005,1
8564,Li16 Cu12 F48,0.0,14
8565,Li3 V2 Ni2 O8,1.4551000000000003,2
8566,Li3 V3 Co1 O8,0.8869000000000002,2
8567,Li3 Cr5 O8,0.0,166
8568,Li6 Fe6 O16,0.0,9
8569,Li12 Co8 Si8 O32,0.49330000000000007,1
8570,Li4 V4 F14,0.46829999999999994,2
8571,Li2 Mn1 Se2 O6,3.1898,166
8572,Li8 Fe4 O8 F4,2.1339999999999995,15
8573,Li4 Fe4 Sb2 O12,0.6873,64
8574,Li2 Bi1 S2,0.0,71
8575,Li4 Co8 O16,0.0,9
8576,Fe10 O14 F6,0.0,31
8577,Fe10 O16 F4,0.0,2
8578,Cs1 Li7 Ni2 O6,2.434,12
8579,Ce2 O2 F2,0.0,129
8580,Cs2 As2 O6,2.2278,162
8581,Bi4 O4 F4,2.4281,70
8582,Ca4 Bi4 O12,0.0,14
8583,Sr2 O12,0.0,15
8584,Pr3 In3 Ni3,0.0,38
8585,Mg2 F4,6.3561,2
8586,Na8 Hf2 S8 O36,0.4536,9
8587,Li2 Se4 O12,0.3337000000000001,7
8588,Na4 Ca2 Zr4 Si20 O54,0.05620000000000003,9
8589,I12 O32,0.0045000000000001705,14
8590,H16 N8 O12,4.1953000000000005,1
8591,Fe16 H20 O34,1.3594,1
8592,Al3 Ge1,0.0,139
8593,Ba1 Mg3,0.0,139
8594,Ce3 Er1,0.0,139
8595,Ca2 Sm6,0.0,194
8596,Ce3 Ho1,0.0,139
8597,Ce1 Pm3,0.0,139
8598,Eu1 Y3,0.0,139
8599,Ho2 Os1 Rh1,0.0,225
8600,La1 Ce1 Mg2,0.0,225
8601,K1 Pb3,0.0,221
8602,Li6 Eu2,0.0,194
8603,Ce1 Gd3,0.0,221
8604,Mg16 Al12 Re1,0.0,160
8605,Mg16 Al12 Ru1,0.0,160
8606,Mg2 Ir2,0.0,51
8607,Mg2 Ni6,0.0,194
8608,Mn1 Tc2 Ge1,0.0,225
8609,Na6 Mg2,0.0,194
8610,Na3 Yb1,0.0,221
8611,Pr3 Eu1,0.0,139
8612,Sn3 Bi1,0.0,221
8613,Ta1 Ti3,0.0,139
8614,Tb3 Zr1,0.0,139
8615,Tl1 Bi3,0.0,221
8616,Tl4 Br12,2.0894000000000004,62
8617,Ba2 Sm2 Co4 O12,0.0,47
8618,Sm2 Ga2 Fe15,0.0,166
8619,C8 N8 K4 Pd2,3.8847,14
8620,Tb1 H9 C5 N2 O8,4.5335,5