Index,Composition,bandgap,spgN
0,K4 Mn4 O8,1.3321999999999998,119
1,Cr3 Ni1,0.0,221
2,Cs1 Rb1 As1,0.0,1
3,Si1 Sn1,0.4112999999999998,216
4,Ca3 P2,0.35139999999999993,221
5,Li12 Co8 Ge12 O48,0.0,230
6,In1 Sb1,0.0,225
7,Hf1 Mg6 Sb1,0.0,38
8,Hf1 Mg6 Sb1,0.0,38
9,Zn2 Si2 O6,3.5902,148
10,Mg6 Cd1 Co1,0.0,38
11,Mg6 Co1 Sn1,0.0,38
12,Mg6 Cu1 Sb1,0.0,38
13,Mg6 Co1 Ni1,0.0,38
14,Mg6 Zr1 Ga1,0.0,38
15,Y1 Hf1 Mg6,0.0,38
16,Mg6 Ti1 Zn1,0.0,38
17,Y1 Mg6 Ni1,0.0,38
18,La1 Mg6 Al1,0.0,38
19,Ca1 Mg6 Zr1,0.0,38
20,Mg14 Sb1 Mo1,0.0,38
21,Hf1 Mg14 Cr1,0.0,187
22,Rb1 Mg14 Bi1,0.0,38
23,La1 Mg14 Cr1,0.0,187
24,K1 Mg14 Bi1,0.0,38
25,K1 Sr1 Mg14,0.0,38
26,La1 Mg14 Co1,0.0,187
27,Mg14 Ti1 Mn1,0.0,187
28,Rb1 Mg14 Sn1,0.0,38
29,Mg14 Ti1 V1,0.0,187
30,Sr1 Mg14 Ni1,0.0,187
31,Hf1 Mg14 Co1,0.0,38
32,C4 Ba2,2.1132,15
33,Na1 Y1 Mg6 O8,2.8937000000000004,123
34,Mg14 Ti1 Cd1 O16,0.0,123
35,Mg14 Ni1 Sn1 O16,0.0,123
36,Y1 Mg14 Ti1 O16,0.0,47
37,K1 Mg14 Al1 O16,1.8533,123
38,Mg30 Si1 Sn1 O32,1.9428999999999998,123
39,Mg30 Si1 Sn1 O32,0.9231999999999996,123
40,Cs1 Y1 Mg30 O32,2.1694000000000004,123
41,Mg12 Bi6,0.0,155
42,Sn2 Bi6,0.0,139
43,Mn12 O24,0.0,1
44,Be12 Si12 Sb8 O48,2.9288000000000003,14
45,Fe2 W4 O16,0.0,13
46,W3 O8,2.7281999999999997,2
47,Ca6 Cu6 Mo12 O42,0.0,13
48,Zn2 Ag4 O8,0.3771,2
49,La2 Zn2 Fe2 Sn2 O12,2.2267,7
50,Ni4 Sn4 P8 O36,0.0041999999999999815,2
51,Cr12 O28,0.24039999999999995,62
52,Ca2 Cu9 O13,0.0,2
53,Ca2 P8 W2 O24,1.9165,1
54,Zn2 P8 W2 O24,0.08329999999999993,2
55,Mg4 Ti4 O8,0.24409999999999954,2
56,Zn2 Cr9 O13,0.0,2
57,Zn1 Bi4 O8,0.4849999999999999,1
58,Sr4 Cu4 Bi2 O14,0.0,9
59,Ti6 P8 O28,0.014199999999999768,14
60,Ca2 Sb1 W1 O6,2.1391,1
61,Ca2 Ag4 O8,0.0,63
62,Sr3 Ca1 Cr2 S2 O5,1.4213999999999998,119
63,Cu2,0.0,12
64,Mg12 Si8,0.0,15
65,Sr24 Ca8 Ti24 Mn8 O80,0.0,1
66,Dy3 Mn3 Ga3,0.0,38
67,K4 Mn4 O8,1.3269,119
68,Ce2 Se4,0.05889999999999995,136
69,Ce8 Se16,0.060100000000000264,80
70,Ce12 Se24,0.5375000000000001,60
71,Zr4 Sn4,0.0,62
72,Sr4 Mg2,0.0,194
73,Sr4 Mg2,0.0,187
74,Mg6 Sb6,0.0,8
75,Mg4 Bi8,0.0,63
76,Y2 Mg2,0.0,164
77,Er2 B4 C4,0.0,131
78,Dy2 Mn4 O8,0.0,227
79,Hf2 Te6 Se16,0.7122000000000002,2
80,Na1 Hf1 Mg6,0.0,38
81,Mg4 Mn4 O10,0.0,46
82,La24 Sm8 Cr12 Fe20 O80,0.9913999999999996,1
83,Ca4 Sn20 S44,0.28719999999999946,14
84,Th4 O8,3.4895000000000005,62
85,Sm4 Co3 B6,0.0,166
86,Fe1 Mo6 Se8,0.0,2
87,Fe2 S2 O10,0.0,15
88,Er4 Co3 B6,0.0,166
89,Li10 Cl6 O2,3.6165000000000003,140
90,Rb2 Li1 Ta1 I6,0.0,225
91,Na2 Dy1 Cu1 Cl6,1.5228,225
92,Na2 Er1 Cu1 Cl6,1.5764999999999998,225
93,K2 Ga1 Hg1 Cl6,0.0,225
94,K2 Sc1 Au1 F6,1.5725,225
95,K2 Rh1 Au1 F6,0.5952999999999999,225
96,Cs1 K2 Sb1 F6,3.0671,225
97,K2 Li1 Ta1 Cl6,0.0,225
98,K2 Na1 Ta1 Cl6,0.0,166
99,Ba1 Ni1 O3,0.0,123
100,Cu2 Si1 O4,0.09589999999999987,121
101,Li5 Mn2 Co1 O8,0.0,12
102,Li5 Mn2 Co1 O8,0.0,10
103,Li4 Mn2 Co4 O12,0.8201,64
104,Sc1 Cu3 Pb1 Se4,1.5941999999999998,215
105,Sb16 H80 C24 F48,4.7915,14
106,Na4 Zn4 Mo4 O20,0.14850000000000002,33
107,Mn6 V4 Si6,0.0,63
108,K2 Au2 Br8 O4,0.39149999999999996,14
109,Lu4 S6,2.5107999999999997,15
110,Hg4 N4 Cl4,0.0,59
111,Ac1 Ce3,0.0,221
112,Ac1 Ce3,0.0,139
113,Ba6 Bi2,0.0,194
114,Ca6 Dy2,0.0,194
115,Ce6 Tm2,0.0,194
116,Co6 Sn2,0.0,194
117,Gd3 Au1,0.0,123
118,Cs1 Eu1 O3,0.0,221
119,Pu1 S3,0.0,139
120,Sn6 Au2,0.0,194
121,Sr3 La1,0.0,225
122,Sr1 Pt1 O3,0.0,221
123,Ta3 Pd1,0.0,139
124,Y3 Bi1,0.0,221
125,Na4 I2 O12,0.1876,58
126,Fe4 O4 F10,0.789,74
127,Eu1 H9 C5 N2 O8,0.0,5
128,Li12 Al12,0.0,64
129,Cd4 N4 O16,0.042100000000000026,19
130,Ti4 Fe8 O16,0.0,51
131,Rb2 U2 Cr2 I2 O20,0.14190000000000003,2
132,Np4 Co34,0.0,63
133,Li4 Th10 O2 F44,1.303,90
134,Cu8 Bi4 Te4 S4 O40,0.09850000000000003,14
135,Ba8 W4 O24,0.38660000000000005,14
136,Cu8 Sn24 H216 C72 N8 Cl8,2.8242000000000003,198
137,K8 Si8 O24,0.1873,64
138,As4 S16 N12,1.2746,62
139,Ca4 Mn2 Al4 Si8 B2 O30,1.0911,2
140,Sr4 U8 Se20,0.0026999999999999247,62
141,K2 P2 H24 Pt2 C4 N4 Cl4 O8,2.5140000000000002,2
142,H64 S4 N24 O40,3.0914,14
143,Na16 Y6 Si24 O72,0.0,167
144,H18 C2 N18,2.008,2
145,Sr2 Li4 Al8 P8 O40,0.0,72
146,K8 As8 O8 F40,1.1816999999999998,62
147,Cu20 Si16 O56,0.0,61
148,Cd4 H56 C32 N8 O24,3.4231000000000003,60
149,Sm12 Sb16 S36,0.0,62
150,P16 H216 C80 N32 Cl8,3.7150999999999996,61
151,V4 H96 C32 N16,1.7011,2
152,Sr2 Pr1 Nb1 O6,2.8827999999999996,225
153,Tm2 Sn2 Pt4,0.0,194
154,Sm2 P2 Os4 C2,0.0,63
155,Sm4 Ta4 O18,0.30210000000000004,14
156,Rb4 Tm4 S8 O36,1.0147,14
157,Rb4 Lu4 S8 O36,0.9989,14
158,Ni2 H40 C8 N20 O24,3.4286000000000003,14
159,Mg4 Si8 O22,0.0,12
160,La4 Mo4 O20,2.3364000000000003,14
161,C12 S8 O8 F16,3.549,14
162,Ce14 Pt6,0.0,186
163,Ag2 Bi4 W2 O16,0.16700000000000026,12
164,Zr1 U1 Al4,0.0,216
165,Zr2 Cr2 Cu2,0.0,74
166,V1 Ni3,0.0,123
167,V4 W1 C5,0.0,166
168,U2 As1 Se1,0.0,123
169,U3 Al3 Co1 Rh2,0.0,6
170,Ti3 N4,0.0,139
171,Ti4 Fe2 B4 Ru4 Rh6,0.0,55
172,Tc1 Ni1,0.0,187
173,Ti4 H2 C2 Se8 Cl32 O10,0.23050000000000004,7
174,Tb2 Fe17 N2,0.0,12
175,Sr2 Ca4 Yb20 O36,0.0,1
176,Sm1 Bi1 Te3,0.9844999999999997,160
177,Nb3 Co8 Si1,0.0,156
178,Nb18 Fe6 Ge4,0.0,69
179,Na1 Fe3 O4,0.0,160
180,La4 Sb1 Te7,0.0,115
181,K1 Ti1 O2 F1,0.8782999999999999,123
182,K1 Na1 Ca3 Mg10 Si16 O48,3.2702999999999998,1
183,In1 As4 Pd15,0.0,166
184,H15 Se3 N3 O12,3.4286,1
185,Er1 Ga6 Fe6,0.0,69
186,Dy4 Fe1 S7,0.15909999999999958,8
187,Er4 Fe2 Sb2 O14,1.5271,74
188,K8 In18 Si28,0.12840000000000007,40
189,Cr2 In2 Co2 S8,0.0,74
190,Co1 Rh2 O6,0.0,2
191,Ce1 Mn7 Ni5,0.0,44
192,Ca1 Y1,0.0,65
193,Ca1 Mn1 V4 Cu2 O12,0.0,71
194,Be46 Ru7,0.0,156
195,Al2 Cu1,0.0,123
196,S12 Pr2 Tb2 Yb4,1.2724000000000002,11
197,Fe1,0.0,225
198,O14 Sb4 Pt4,0.5643000000000002,227
199,In2 Sb2,0.0,63
200,S24 Fe21,0.022800000000000153,144
201,H16 N4 O8 Se2,3.6061,12
202,H32 N16 O24,3.2767,56
203,H40 N16 F8,5.4604,19
204,H44 B20 N8,3.8592999999999997,15
205,Li2 Ge1 Pd1,0.03400000000000025,225
206,Al3 Dy1,0.0,139
207,O48 P12 Mo9,1.1783,1
208,Ni4 P8 O28,0.0,14
209,Rb4 Na2 Mn2 C12 N12,0.0,14
210,Si4 O8,4.8294,98
211,Li8 I8 O24,3.5575,86
212,Sn10 W16 O46,1.7194999999999996,176
213,Ag4 C4 S4 N4,2.2796999999999996,58
214,Cd2 Fe1 C6 N6,2.609,147
215,Ta2 Si4 H70 C24 N8,3.2977,2
216,Fe4 H4 C8 O12,1.8730999999999998,14
217,V12 H24 C4 N4 O28,1.9649,14
218,P8 H24 O24,4.1531,7
219,Ru4 C12 Se4 O12,2.1874,217
220,Ce1 Bi1,0.0,221
221,Fe8 Si8 Ge8,0.4379999999999997,64
222,K8 Co14 O28,0.0,176
223,Sb16 Se80 F96,0.023900000000000005,14
224,Y20 Pb16,0.0,1
225,Li6 Nb6 As12,0.0,8
226,Tl54 Sb6 Te36,0.4892000000000003,83
227,Na8 C8 S8 O24 F24,5.8787,1
228,Sr4 Pr4 Mn2 Cu2 O16,0.0,2
229,Na4 H12 C8 O14,2.7221,15
230,Ni2 H32 C4 S6 N12 O14,2.0362999999999998,11
231,Tb1 Zr4 O10,0.0,87
232,Zn1 Re1 O4,0.0,65
233,Li3 Co2 O2 F3,0.0,139
234,Li2 Co2 O4,0.8952,186
235,V4 Co4 O16,0.2600999999999998,62
236,Li3 Cr2 Fe5 O12,0.0,5
237,Rh2 I4,0.0,136
238,Pu2 Si4 Pt4,0.0,129
239,Zr1 Si1 Pt1,1.3297999999999996,216
240,Rb1 Sr3,0.0,225
241,Rb1 Pt1 O3,0.0,221
242,Rb1 Pd1 O3,0.0,221
243,Nd6 Si2,0.0,194
244,Yb3 Ru1,0.0,225
245,Ga3 Au1,0.0,225
246,Al8 As8,0.3385000000000007,205
247,Mn2 Sn2,0.0,194
248,Al10 Cu6 O24,0.0,12
249,Mg2 Ti4 O8,0.0,8
250,Al8 Ni6 O24,0.0,12
251,Ca1 Fe18 O26,0.8056999999999999,1
252,Fe2 F8,1.6229,1
253,Al10 Fe6 O24,1.5019999999999998,12
254,Al4 W6 O24,1.8538000000000001,2
255,Mn4 Al4 O12,0.6812000000000005,62
256,Ca4 Sb2 W2 O12,0.8145999999999995,11
257,Ti4 Zn6 Si8 O28,0.06669999999999998,15
258,Ca8 Ti16 O32,0.0,8
259,La1,0.0,229
260,Ca12 Mn16 O32,0.4100999999999999,7
261,Al3 V1,0.0,221
262,W2 C1,0.0,164
263,Li1 Mn1 As1,0.0,216
264,Ta1 Co1,0.0,221
265,Li12 Cr8 Ge12 O48,0.019400000000000084,230
266,Sr1 Ir1 O3,0.0,221
267,Mg6 Bi1 Sb1,0.0,38
268,Na1 Sr1 Mg6,0.0,38
269,Na1 Sr1 Mg6,0.0,38
270,La1 Ce1 Mg6,0.0,38
271,Cr1 Ni1 Sb1,0.0,216
272,Eu2 O4,0.0,129
273,Na4 Cl2,0.0,123
274,Re2 N4,0.0,13
275,Ca4 Si2 O8,4.1723,164
276,Sr4 S3 O1,2.1146000000000003,221
277,Ba1 Li1 Mg6,0.0,38
278,Li1 Mg6 Ti1,0.0,38
279,Li1 Mg6 Ti1,0.0,38
280,La1 Mg6 Sn1,0.0,38
281,Cs1 Na1 I1 Cl1,3.8426,123
282,Mg6 Cd1 Co1,0.0,38
283,Li1 Mg6 Co1,0.0,38
284,Mg6 Co1 B1,0.0,38
285,Na1 Mg6 Cu1,0.0,38
286,Na1 Mg6 Cu1,0.0,38
287,La1 Mg6 Cu1,0.0,38
288,Hf1 Mg6 Zn1,0.0,38
289,Mg6 Ti1 Zn1,0.0,38
290,Mg6 Zn1 Si1,0.0,38
291,Ce1 Mg6 Zn1,0.0,38
292,Ca1 La1 Mg6,0.0,38
293,Ca1 La1 Mg6,0.0,38
294,Ca1 Mg6 Sn1,0.0,38
295,Mg6 Al1 Si1,0.0,38
296,Ba1 Mg6 Al1,0.0,38
297,Mg6 Zr1 Al1,0.0,38
298,U2 W2 C3,0.0,12
299,Dy2 In2 Pt4,0.0,194
300,K1 Na1 Mg14,0.0,187
301,Mg14 Ti1 Cr1,0.0,187
302,Mg14 Bi1 Mo1,0.0,38
303,Hf1 Mg14 Mo1,0.0,38
304,Ba1 Mg14 Sb1,0.0,38
305,Ba1 Sr1 Mg14,0.0,38
306,Mg14 Cr1 Si1,0.0,38
307,Ba1 Mg14 Si1,0.0,38
308,Ce1 Mg14 Cr1,0.0,187
309,La1 Mg14 Bi1,0.0,187
310,La1 Mg14 Nb1,0.0,38
311,K1 Sr1 Mg14,0.0,187
312,Rb1 Li1 Mg14,0.0,38
313,Mg14 Cu1 Mo1,0.0,187
314,Mg14 Fe1 Bi1,0.0,187
315,Mg14 Zr1 Nb1,0.0,187
316,K1 Mg14 Cu1,0.0,38
317,Mg14 Zr1 Si1,0.0,38
318,Ba1 Mg14 Zr1,0.0,38
319,Mg14 Ga1 Fe1,0.0,38
320,Mg14 Zn1 Fe1,0.0,38
321,K1 Y1 Mg14,0.0,38
322,Mg14 Mn1 Nb1,0.0,38
323,Mg14 Mn1 Cr1,0.0,38
324,Hf1 Mg14 Mn1,0.0,187
325,Mg14 Mn1 Si1,0.0,187
326,Ca1 Mg14 Nb1,0.0,187
327,Ca1 Mg14 Nb1,0.0,38
328,Mg14 Mn1 Fe1,0.0,187
329,K1 Ca1 Mg14,0.0,38
330,Na1 Mg14 V1,0.0,38
331,La1 Mg14 V1,0.0,38
332,Mg14 Cr1 Ni1,0.0,187
333,Mg14 Nb1 Ni1,0.0,187
334,Mg14 Nb1 Ni1,0.0,38
335,Mg14 V1 Ni1,0.0,38
336,Ce1 Mg14 V1,0.0,38
337,Na1 Mg6 Bi1 O8,1.0008,123
338,Na1 Mg6 W1 O8,1.2925000000000004,123
339,Ca1 Mg6 Ti1 O8,0.0,123
340,Mg6 Al1 Co1 O8,0.0,123
341,Mg6 Cr1 Cd1 O8,0.0,123
342,Mg6 Cr1 Cd1 O8,0.0,123
343,Sr1 Mg14 Ti1 O16,0.0,123
344,Sr1 Mg14 Ti1 O16,0.0,47
345,K1 Mg14 Ti1 O16,0.050400000000000666,47
346,Na1 Hf1 Mg14 O15,0.0,25
347,Mg14 Cd1 Sn1 O16,0.0,123
348,Mg14 Cr1 Sn1 O16,0.0,123
349,Na1 Mg14 B1 O16,3.8059000000000003,47
350,Na1 Mg14 Si1 O16,0.0,123
351,Mg14 Ti1 Ni1 O16,0.0,123
352,Mg14 Ni1 Sn1 O16,0.0,47
353,Mg14 Nb1 Co1 O16,0.0,123
354,Mg14 Nb1 Cu1 O16,0.0,47
355,Mg14 Nb1 Cu1 O16,0.0,123
356,K1 Mg14 Ga1 O16,1.4006999999999996,123
357,Ca1 Mg14 Nb1 O16,0.0,123
358,Ca1 Mg14 Nb1 O16,0.0,47
359,Ca1 Mg14 Sn1 O16,0.7521000000000004,123
360,Mg30 Cu1 C1 O32,0.1642999999999999,123
361,Mg30 Cu1 C1 O32,2.244999999999999,123
362,Mg30 Al1 C1 O32,0.9264999999999999,123
363,Mg12 Bi4,0.0,225
364,Mg8 Bi4,0.0,12
365,Ca4 Zn2,0.0,136
366,Ca4 Mg2,0.0,164
367,Ce6 Mg2,0.0,194
368,Rb1 Hf1 Mg30 O31,0.0,25
369,Na1 Mg30 C1 O32,0.5286999999999997,123
370,Hf1 Mg30 Si1 O32,0.1598000000000006,123
371,Hf1 Mg30 Si1 O32,0.02430000000000021,123
372,Rb1 Mg30 B1 O31,2.6766999999999994,25
373,Li1 Mg30 C1 O32,0.35609999999999964,123
374,K1 Mg30 B1 O31,2.268700000000001,25
375,K1 Rb1 Mg30 O31,2.3617000000000004,99
376,Mg30 Ti1 Bi1 O32,0.0,123
377,Mg30 Ti1 Bi1 O32,0.0,123
378,Ca2 Ni4 O8,0.5640999999999998,160
379,Mg4 Ta8 Cu8 O32,0.3933000000000002,14
380,Co8 P8 O32,0.0,15
381,Ta8 Zn4 Cu8 O32,0.3660000000000001,14
382,Ca4 Ti8 Cu8 O32,0.6372,14
383,Fe8 P8 O36,0.0,1
384,Zn2 Bi6 P6 O26,2.3749,11
385,Y2 Mo6 F30,1.8009000000000002,11
386,Si16 Sn8 O48,3.2095,61
387,Y2 Fe6 F30,0.0,11
388,Ta2 W4 O16,0.0,13
389,V1 W2 O8,1.8724,2
390,Ca2 V4 O8,0.0,74
391,Ba2 Sb3 O8,0.0,123
392,Cr8 Si16 O48,1.6727999999999998,61
393,Bi4 As8 O28,0.02679999999999999,14
394,Zn4 Sn4 As8 O28,1.4058000000000002,14
395,Ca1 Cu3 Sb4 O12,0.0,204
396,Ca8 Fe8 Bi8 O40,0.0,61
397,Mg8 Fe8 Bi8 O40,0.0,61
398,Ca2 Fe4 O8,1.7561000000000004,8
399,Bi4 O10,0.0,63
400,Si16 Bi4 O40,0.0771,130
401,Mg2 Sn4 P4 O20,2.5620999999999996,43
402,Sr4 Al2 Cu4 Ni2 O14,0.057299999999999685,1
403,Zn4 Bi4 Sb4 O20,2.3091000000000004,14
404,Co4 Si16 O40,1.0566,130
405,La2 Zn2 Cr2 Fe2 O12,0.7851000000000008,7
406,Bi12 O28,0.0,62
407,Sr4 Cu4 Ni2 O14,0.0,1
408,Pr2 Mg2 Bi4 O12,0.0,31
409,Ba6 Sn6 F33,0.06769999999999987,145
410,Ca2 Pr2 W4 O12,1.3710999999999993,4
411,Mg4 Sb8 P8 O36,2.1411999999999995,62
412,Zn6 Sb12 O24,1.7036999999999995,1
413,La2 Mg2 Cr2 Co2 O12,0.8331,7
414,Zn6 Ag12 O24,0.0,8
415,La2 V2 Zn2 Cr2 O12,1.5343,7
416,Ca3 Ti4 S8,0.0,12
417,Y4 Ni12 O24,0.0,12
418,Mg2 Co4 S8,0.08230000000000004,74
419,Y2 V4 O8,0.8193999999999999,74
420,Ti9 O13,0.0,12
421,Li1 Co4 O8,0.0,12
422,Mg2 Mo4 O12,0.8715999999999999,7
423,Ta4 Ti2 Zn4 O16,0.0,1
424,Mg2 Co9 O13,0.0,2
425,Mn4 Zn4 O8,0.0389999999999997,2
426,Sr4 Ti2 Cu4 O14,0.0,1
427,Mg1 Bi4 O8,0.6780999999999997,1
428,Zn1 Sn4 O8,0.6476000000000006,1
429,Zn2 Co2 Si2 O10,0.0,1
430,Mg2 Co2 Si2 O10,0.0,1
431,Ca2 Cu8 O12,0.0,63
432,Ca4 Cu4 O8,0.1560999999999999,1
433,Zn6 Bi12 O24,1.3285999999999998,1
434,Ca4 Nb4 Mo2 O16,0.0,15
435,Cr2 Ir2 O12,0.0,14
436,Al2 Sn6 F30,2.7011000000000003,11
437,Al1 Mo1 W2 O8,2.3592,1
438,Mn4 Zn2 O8,0.0,63
439,Ba2 Y2 Cu8 O14,0.0,186
440,Ba2 Ca3 Mn4 Tl2 O12,0.0,139
441,Mg2 Sb4 O12,1.5252,31
442,Zn2 Cr4 O8,1.0532,160
443,La2 Mg2 Cr2 Ni2 O12,0.0,7
444,La2 Ta2 Zn2 Cr2 O12,1.8525,7
445,La2 Zn2 Cr2 Bi2 O12,0.8994999999999997,7
446,Se1 Cd1,0.0,225
447,Mn1,0.0,229
448,Mn1 Ni1 Ge1,0.0,216
449,Se2 Yb2,2.2565999999999997,194
450,Mn2 Cu1 Ge1,0.0,216
451,Tm1,0.0,229
452,U2 Te2 P2,0.0,1
453,O2 Pd4,0.0,224
454,Mg12 Si12,0.0,2
455,Mg6 Si6,0.0,2
456,Mg12 Si12,0.0,11
457,Dy1,0.0,229
458,Er1,0.0,229
459,La4 Ag4 O10,0.0,46
460,Ba4 Sr28 Ti24 Mn8 O80,0.0,1
461,La6 Sm2 Co7 Ag1 O24,0.0,38
462,Sm4 Cu4 O10,0.0,46
463,La7 Sm1 Ni6 Ag2 O24,0.0,38
464,La16 Sm16 Ni28 Ag4 O80,0.0,1
465,Ho2 Sn2 Au2,0.0,194
466,Mg2 In4,0.0,227
467,Ti2 S4,0.23039999999999994,194
468,Ce2 Al2 Ir2,0.0,194
469,Pr2 Cr1 Se4,0.0,12
470,Ag2 I1 O6,0.0,148
471,Mg7 Nb1,0.0,225
472,Tb2 B4 C4,0.0,131
473,Sr2 Y1 Cr1 O6,0.0,225
474,Ge8,0.0,206
475,Bi4 O6,0.0,132
476,Fe4 N8,0.0,58
477,Ce2 Se4,0.5425999999999997,58
478,Np4 In2 Pd4,0.0,127
479,Ti4 H3 Pd2,0.0,123
480,U2 Cu2 Bi4,0.0,129
481,Ho2 B4 C4,0.0,131
482,Al1 Au1,0.0,221
483,Zn1 Ga2 S4,0.0,160
484,Zn2 Ga4 S8,0.00010000000000021103,186
485,Zn2 Ga4 S8,0.001100000000000101,8
486,Zn4 Ga8 S16,1.2869000000000006,62
487,Nb2 C2,0.0,194
488,Ce16 Se32,0.4682999999999997,14
489,La2 Mg4,0.0,189
490,Hf3 Mg3,0.2010000000000005,166
491,Mg4 Sn2,0.0,194
492,Mg8 Sn4,0.0,12
493,Sr4 Mg8,0.0,63
494,Mg2 Ti6,0.0,44
495,Y3 Mg3,0.0,166
496,Mg2 Ti6,0.0,59
497,Mg2 Zn4,0.0,194
498,Mg8 Ti6,0.0,176
499,Y3 Mg3,0.0,187
500,Mg4 Sb4,0.0,12
501,Mg3 Ga3,0.0,187
502,Mg2 Sn2,0.0,164
503,Mg1 Ti3,0.0,25
504,Mg2 Sb2,0.0,51
505,Sn2 I6,0.0,140
506,Fe5 O7,0.0,12
507,Sm4 Mn8,0.0,63
508,Al4 Zn2 S8,0.0,164
509,Ca4 Fe4 O10,0.4973000000000001,31
510,K4 Fe4 O12,0.4780000000000001,62
511,La2 Fe2 O5,0.7647000000000004,1
512,Mg30 Sn1 Bi1 O32,0.0,123
513,Ba1 Mg30 Nb1 O32,0.0,123
514,Ce1 Mg14 Bi1,0.0,187
515,Ca1 Ce1 Mg6,0.0,38
516,Y1 Mg6 Ga1,0.0,38
517,Ce1 Mg6 Zn1,0.0,38
518,Ce1 Mg6 Cu1,0.0,38
519,La1 Mg6 Ga1,0.0,38
520,Ce1 Mg6 Ga1,0.0,38
521,Na1 V1 O3,0.22519999999999962,221
522,La28 Sm4 Ni24 Ag8 O80,0.0,1
523,La7 Sm1 Mn5 Fe3 O24,0.0,8
524,K4 Na28 V24 Cr8 O80,0.03399999999999981,1
525,Ca12 Sn12 S36,1.4083999999999999,2
526,Ca2 Sn8 S18,0.0,13
527,Ca8 Sn12 S32,1.3209000000000004,4
528,Ca8 Sn12 S32,1.3506999999999998,14
529,Li9 Mn2 Co5 O16,0.0,10
530,Mg8 Si6,0.0,1
531,Ca12 Sn20 S52,1.3729,14
532,U10 As6 Se4,0.0,87
533,Tl90 Sb10 Te60,0.5366999999999997,85
534,Sn4 P6 O20,0.0,15
535,Ni12 P16 O60,0.009899999999999992,33
536,Ti4 Cu2 S8,0.0,43
537,Sm3 Mn4 Sn4,0.0,71
538,Zn4 Se8,0.8048000000000002,205
539,Cu4 Cl2 O6,0.0,11
540,Sm4 Mn8,0.0,63
541,Zn4 Si2 O9,0.13230000000000008,44
542,Fe2 Si2 Sb1 O9,0.10139999999999993,8
543,Ho4 Co3 B6,0.0,166
544,Fe2 S2 O10,0.20039999999999997,15
545,Pu12 Fe2,0.0,140
546,Ca4 Cr4 O10,0.7249999999999996,46
547,K4 Se8 O4,0.051799999999999846,7
548,K2 Rb1 Pr1 F6,5.0906,225
549,Rb2 Na1 Ta1 I6,0.0,225
550,Na3 In1 Cl6,3.1183,225
551,Na3 Sc1 Br6,3.0712,225
552,Na3 Sc1 I6,2.1552000000000002,225
553,K3 Mo1 I6,1.4013000000000002,225
554,Cs2 K1 Ta1 F6,0.0,225
555,Na2 Lu1 Cu1 Cl6,1.6528999999999998,225
556,K1 Na2 Ga1 F6,4.9444,225
557,Na2 Al1 Cu1 F6,0.2256999999999998,225
558,K2 Y1 In1 F6,3.2878999999999996,225
559,K2 Na1 Au1 Cl6,0.0,225
560,Na2 Ag1 As1 Br6,0.6909000000000001,225
561,K2 Na1 Au1 Br6,0.0,225
562,Na2 Cu1 Au1 F6,0.0,225
563,K2 Tl1 Au1 F6,0.0,225
564,Rb2 Y1 Au1 F6,1.5144,225
565,Na3 Al1 Cl6,4.0067,225
566,Na2 Li1 Sb1 Cl6,2.9225000000000003,225
567,Tb1 Na2 Cu1 Cl6,1.4922,225
568,Na2 Cu1 Sb1 Cl6,0.6409000000000002,225
569,Na2 Ag1 Au1 Cl6,0.0,225
570,Na2 Ag1 As1 Cl6,1.1729,225
571,Na2 Li1 Y1 Br6,3.1247,225
572,Cs1 Rb2 Ga1 Br6,2.3691000000000004,225
573,Na3 Gd1 Cl6,3.004,225
574,K2 Sc1 Hg1 F6,0.0,225
575,K2 Y1 Hg1 I6,0.0,225
576,Cs1 K2 Al1 I6,2.1345,225
577,Tb1 K2 Au1 Cl6,2.0558,225
578,K2 Gd1 Au1 Cl6,1.4942,225
579,K2 In1 Sb1 F6,1.8032000000000004,225
580,Cs1 K2 Y1 F6,5.0793,225
581,K2 Al1 Au1 I6,0.0,225
582,Cs2 Cu1 Mo1 I6,0.07100000000000017,225
583,Cs2 Ga1 Au1 Br6,0.0,225
584,Rb2 Pr1 Au1 Cl6,2.1519,225
585,Rb2 La1 Au1 Cl6,2.2794999999999996,225
586,Na3 Sm1 Cl6,3.8194,225
587,K1 Rb2 Au1 Br6,0.0,225
588,K1 Rb2 Ga1 I6,0.8349,225
589,Ca1 Fe1 W1 O6,0.0,216
590,Tl2 Cl3,0.0,166
591,Na8 Co16 Bi8 O48,0.0,146
592,Tb1,0.0,229
593,Na4 Cu2 I4 Cl4,0.0,123
594,Fe8 As12 O48,0.005900000000000016,14
595,In4 As2 Se2,0.0,122
596,Sr4 N3,0.017599999999999838,1
597,Na18 O3,0.0,35
598,Na5 Ca4 Al13 Si11 O48,2.3266,1
599,Li5 Mn2 Co1 O8,0.0,2
600,Li5 Mn2 Co1 O8,0.0,2
601,Li7 Mn2 Co3 O12,0.0,2
602,Li7 Mn5 O12,0.0,12
603,Li7 Fe5 O16,0.0,1
604,Li8 Ti4 Co14 O36,0.0,55
605,In1 Fe17 O24,1.0363000000000002,1
606,Hf4 Ni4 O12,3.0626000000000007,14
607,Cr6 O6,0.49789999999999957,1
608,Cr2 Fe3 Sb1 P6 O24,0.0,146
609,Zn1 Cr1 Cu3 Se4,0.0,215
610,Yb8 Si14,0.010099999999999554,11
611,V2 O5,1.4211,12
612,V12 O32,0.598,62
613,Sr1 Sc1 Cu3 Se4,1.1262000000000003,215
614,Sn2 H8,5.5238,15
615,Pr2 Cl6 O12,2.2550999999999997,13
616,Na2 Ga2,0.0,63
617,P24,3.605,2
618,Ni1 I2 O6,3.1003999999999996,12
619,Na3 Ca9 C6 O21 F9,0.015699999999999936,145
620,Mg1 Cr1 Cu3 Se4,0.0,215
621,Na4 Cu2 S4 O20,0.2494,14
622,Mo4 H4 O14,2.199,11
623,Mo2 H8 O10,1.8506,1
624,K1 Zr1 Cu3 Se4,1.3195999999999999,215
625,K1 V1 Cu3 Se4,0.0,215
626,K2 Hg2 Br6 O2,1.2144,36
627,H12 N8 O18,1.4426,18
628,Hg2 I6 N2 O2,0.8265,9
629,Gd2 O4,0.0,11
630,H12 N8 O18,1.5925,18
631,Cs2 Ge2,0.0,63
632,K2 Na4 Ca5 Si12 O34,0.0027000000000000357,8
633,K8 U8 Cr8 H8 O68,0.1291,14
634,Bi4 Se4,0.0,14
635,Bi8 Se4,0.0,14
636,Ba2 V4 P4 H16 O28,2.3971999999999998,7
637,C12 S8 O8 F16,3.6093,14
638,Co2 H64 C16 S8 N4 O20,2.3756000000000004,14
639,Ba2 Tb2 O6,0.0,1
640,Co12 P8 O36,1.2664,14
641,Ac3 Zn1,0.0,139
642,Ac1 Th1,0.0,187
643,As2 Pb6,0.0,194
644,Ba1 Re1 O3,0.0,221
645,Ca3 Ag1,0.0,221
646,Ca3 Y1,0.0,225
647,Ca3 Y1,0.0,221
648,Ca3 Y1,0.0,139
649,Ca6 Tb2,0.0,194
650,Ca2 F6,0.0,194
651,Ca1 F3,0.0,139
652,Ca1 Ho3,0.0,139
653,Cd3 Ir1,0.0,221
654,Cd3 Ir1,0.0,139
655,Ce4 Mg2,0.0,63
656,Cs6 I2,0.0,194
657,Eu3 Ag1,0.0,221
658,Eu1 W1 O3,0.0,221
659,Eu1 Ho3,0.0,139
660,Hg6 Bi2,0.0,194
661,Ge1 Pb3,0.0,139
662,K3 Mg1,0.0,139
663,In6 Ge2,0.0,194
664,K1 Pb1 O3,0.0,221
665,K3 Yb1,0.0,225
666,Li1 Ge3,0.0,139
667,Li1 Pr3,0.0,221
668,Gd6 Ag2,0.0,194
669,Mg1 Bi5,0.0,5
670,Na1 Fe1 O3,0.0,221
671,Np1 Sc1 Tc2,0.0,225
672,Pr6 Ag2,0.0,194
673,Sn3 Ge1,0.0,139
674,Sr1 La3,0.0,139
675,Sr2 Pm6,0.0,194
676,Yb1 Re1 O3,0.0,221
677,Zn1 In3,0.0,225
678,Zr3 Be1,0.0,139
679,Mn2 V4 O14,0.5226999999999999,2
680,Tl4 Cl12,2.6001000000000003,62
681,Ca4 As4 O16,0.057700000000000085,2
682,Ti12 Ge10,0.0,71
683,Sm8 Ni2 S14,0.6141000000000001,173
684,Cu1 Pb4 S2 O14,0.39949999999999974,2
685,Co4 Mo8 S16,0.0,9
686,Ba4 Cu2 P4 O18,0.0,15
687,Fe4 Mo8 S16,0.0,9
688,Mn24 C4,0.0,227
689,Rb2 Na2 U2 Si4 O18,0.3832,2
690,V4 Re4 O22,0.5941,36
691,Li4 Ge6 O16,0.0,15
692,Th4 P4 O20,3.789,64
693,La2 B8 Cl2 O16,0.0007999999999999119,9
694,Na2 Fe2 H44 C20 N4 O24,2.5247,2
695,H20 C10 N2 O12,3.3189,2
696,Co4 H52 C8 N16 O36,2.8071,14
697,Co8 Te4 S4 O32,0.32299999999999995,57
698,Al8 H88 C32 N8 Cl8,5.3476,62
699,Lu4 I12 O40,0.30590000000000006,15
700,Cu4 H28 C12 N4 O24,0.5145,19
701,Co4 P12 H60 C12 N4 O48,0.49420000000000003,14
702,Ba4 Re8 O48,1.2272999999999998,14
703,Cu4 P12 H64 C12 N4 O48,0.6114,14
704,P4 H120 Pt8 C40 I8 N4 Cl8,3.1747,14
705,U6 H102 C60 N18 O60,2.0488,147
706,U4 B24 H144 C24 N12,0.5021,14
707,La8 Ge4 S20,0.8980000000000006,14
708,Cu24 Ag9 Pb26 Cl62 O48,0.04290000000000016,221
709,U8 H48 C16 S16 O64,2.1092,14
710,K6 Ga2 Te4 O22,0.7039,2
711,B8 As4 H52 C12 Br12 N4,4.7021,14
712,Al8 Ge4 O24,0.05500000000000016,62
713,Ti4 P8 H8 O36,0.0,4