Index,Composition,bandgap,spgN
23879,Li4 V2 Ni2 P4 O16,1.6594999999999995,11
23880,Li8 V4 P8 O28,2.9871000000000003,14
23881,Li7 Si2 Ni3 O12,0.0,12
23882,Li4 Cr4 P4 O16,1.7955,33
23883,Li8 Cr8 P8 O32,2.4969999999999994,14
23884,Li3 Fe3 P3 O12,3.1047000000000002,180
23885,Li4 Fe4 P4 O16,3.4132,2
23886,Li8 Mn4 P8 O28,3.7511,15
23887,Li14 Mn4 P14 O48,1.2326,13
23888,Li4 Co2 P4 O14,2.2452,74
23889,Li4 Ti2 V3 Sn3 O16,0.0,8
23890,Li8 Fe8 C8 O28,2.9417,14
23891,Li12 Sb8 P12 O48,3.5488000000000004,14
23892,Li8 V4 P12 O40,2.1159,14
23893,Li4 P8 W4 O32,3.5405000000000006,14
23894,V2 C4 O12,1.566,14
23895,V4 C8 O24,0.773,122
23896,Li10 V10 O24,0.8980999999999999,1
23897,Li3 Cr5 O10,0.0,2
23898,Li4 Co8 C8 O28,0.0,14
23899,Li8 Cr4 Si16 O40,2.7249,11
23900,Li13 Mn8 O24,0.0,3
23901,Li13 Mn8 O24,0.0026000000000001577,2
23902,Li4 Fe7 P6 O24,2.9981999999999998,8
23903,Li8 Fe4 Si16 O40,3.5622000000000007,14
23904,Li3 Mn2 Ni5 O12,0.3139000000000003,1
23905,Li6 Fe4 Si4 O16,1.3428000000000002,4
23906,Li8 V4 F28,1.7343000000000002,62
23907,Li6 Fe6 Si6 O24,3.0048,173
23908,Li4 Mn2 Ni3 O10,0.0,2
23909,Fe6 O2 F10,1.7313,4
23910,Fe4 O4 F4,1.6705999999999999,14
23911,Li16 V4 C16 O48,1.2907,1
23912,Fe18 O18 F18,0.40290000000000026,6
23913,Fe8 O8 F8,1.6906,40
23914,Fe6 O6 F6,1.7737,4
23915,Fe8 O8 F8,1.7182999999999997,5
23916,Li4 Ni4 P4 O16,3.3739000000000003,2
23917,Fe12 O12 F12,0.7301000000000002,6
23918,Li2 Fe3 Co3 O12,0.0,2
23919,Li4 Mn2 Co3 Cu3 O16,0.0,8
23920,Fe16 O16 F16,1.5808999999999997,2
23921,Li2 Fe2 P4 H3 O16,0.0,1
23922,Li12 Cr3 P6 O24 F6,0.42500000000000004,1
23923,Li2 Co2 Si2 O8,1.2652,4
23924,Sr6 Co6 O16,0.0,12
23925,Li16 Co4 O16,1.2373,58
23926,Fe6 O6 F6,1.0130000000000001,6
23927,Li4 V4 P4 O20,2.9566999999999997,19
23928,Li4 Ni4 C4 O16,0.5358999999999998,14
23929,Li4 Mn7 O16,1.0473999999999999,12
23930,Li8 V2 P4 O18,1.2345,67
23931,Li4 P8 W4 O32,3.5274,14
23932,Li4 P16 W4 O48,3.8990000000000005,20
23933,Li4 P4 W16 O52,0.7896999999999998,26
23934,Fe18 O18 F18,0.35089999999999977,6
23935,Li4 V2 C6 O18,2.3544,40
23936,Fe18 O18 F18,0.0,6
23937,Li4 Co4 Si4 O16,1.4676,7
23938,Li2 Ti2 V3 O10,0.5897000000000001,2
23939,Li2 Cr2 Si2 O8,2.0247,74
23940,Li1 Mn1 P3 O9,3.9618999999999995,146
23941,Li12 V8 P8 O32 F12,2.3586,58
23942,Li19 Cr4 P8 O35 F1,1.7946999999999997,1
23943,Li12 Mn18 O36,0.0,1
23944,Li1 Mn2 F6,0.9550000000000001,1
23945,Ti3 Cu2 P6 W1 O24,0.0,146
23946,V12 O28 F4,1.2538,62
23947,Ba4 Li4 Ca4 V4 P8 O36,2.0006999999999997,14
23948,Mn4 O2 F6,0.0,12
23949,Li8 Ni4 C8 O24,2.1319,2
23950,Mn8 O8 F8,0.02639999999999998,1
23951,Mn6 O4 F8,0.0,1
23952,Mn6 O7 F5,0.0,1
23953,Li1 Co5 O7 F1,0.33919999999999995,160
23954,Mn6 O8 F4,0.0,5
23955,Mn6 O5 F7,0.0,1
23956,V1 O1 F2,2.1599,5
23957,Li5 Mn1 O1 F5,0.5905000000000002,156
23958,Li3 Mn3 O1 F7,2.2852,160
23959,Mn12 O5 F19,0.0,1
23960,Li4 Fe8 B8 O24,1.9411,1
23961,Mn6 O10 F2,0.0,12
23962,Fe18 O18 F18,0.5734000000000004,6
23963,Li3 Fe8 B8 O24,1.5705000000000002,1
23964,Mn6 O8 F4,0.0,4
23965,Mn8 O8 F8,0.0047999999999999154,2
23966,Li4 Fe8 B8 O24,1.43,1
23967,Li6 Mn2 F14,1.4076999999999997,1
23968,Mn6 O8 F4,0.0,31
23969,Li3 Fe8 B8 O24,1.4555,1
23970,Li14 V2 O10 F2,1.8165,2
23971,Li12 Mn4 O16,0.0,42
23972,Mn8 O8 F8,0.07509999999999994,1
23973,Li12 Mn4 Fe4 Co4 P12 O48,2.0075999999999996,6
23974,Li4 Mn4 F16,2.1818999999999997,14
23975,Fe18 O18 F18,0.0,6
23976,Li8 Co4 C8 O24,2.0688,4
23977,Li4 Ni2 P4 O14,3.4129,2
23978,Li12 Ti3 Cr15 O36,0.12849999999999984,2
23979,Li2 Fe2 Si8 O19,3.0309,5
23980,Li2 V1 F4,2.4348,42
23981,Li2 Co2 P2 O8,2.9922,9
23982,Li8 Cu4 F20,0.4738,11
23983,Li4 V5 O9 F1,1.673,1
23984,Li4 Mn2 Co2 O8,0.49360000000000026,15
23985,Mn8 O14 F2,0.0,9
23986,Li2 V2 Si1 Ge1 O10,1.8504999999999998,21
23987,V3 Cr1 Sb2 P6 O24,0.0,146
23988,Li5 Mn3 Co2 O10,0.581,2
23989,Li2 Fe1 Co1 O4,0.7536,10
23990,Li2 V4 O4 F6,1.3772000000000002,63
23991,Li1 Ni5 O5 F1,2.2295999999999996,123
23992,Li2 P4 W2 O16,2.308,4
23993,V2 Fe3 Sb1 P6 O24,0.7406999999999999,146
23994,Li3 V4 O3 F9,1.8959,1
23995,Li1 V3 O2 F6,1.7441,5
23996,Ba3 Ca6 I18,3.6008000000000004,150
23997,Li5 Co2 Cu2 P4 O16,0.0,1
23998,Li7 Ni1 O1 F7,3.1729000000000003,8
23999,Li4 V2 Si8 O22,0.9102999999999999,87
24000,Li7 Fe7 Si1 O16,1.4380000000000002,21
24001,Li4 Mn5 O9 F1,0.9698000000000002,1
24002,V6 H16 N4 O16,1.9786,100
24003,Sn4 P8 O24,3.5944,20
24004,Cr8 O2 F12,1.2968000000000002,137
24005,Mn7 O7 F1,0.0,156
24006,Li2 Fe2 Si2 O8,2.5873,1
24007,Li6 Mn2 P2 C2 O14,4.108499999999999,4
24008,Li6 Cr1 Co1 P2 C2 O14,1.29,6
24009,Li3 Cr2 P4 H1 O14,3.1521999999999997,2
24010,Li2 La2 Ti4 O12,1.6976,13
24011,Na4 P2 Ru2 C2 O14,0.0,11
24012,Li2 Mn4 P4 O20,0.0504,1
24013,Li8 Mn4 F20,1.7835,33
24014,Li4 Ni2 C4 O12,3.1111,1
24015,Mn2 Fe3 Cu1 P6 O24,0.0,146
24016,Li4 Fe4 Si4 O16,2.7268,4
24017,Li12 Mn4 P4 C4 O28,4.1411,14
24018,Li12 Mn4 P4 C4 O28,4.1018,14
24019,Li12 Mn4 P4 C4 O28,3.5184,1
24020,Li6 Fe1 Si2 O8,3.7361000000000004,2
24021,V8 Si8 O26,0.6473999999999993,2
24022,Li4 As2 P2 C2 O14,4.265,11
24023,Li12 Sb4 S12,1.6745,14
24024,Li4 Sb2 P2 C2 O14,3.2196000000000002,4
24025,B8 Te4 O20,3.3161,15
24026,Ba8 Y4 I28,3.0155000000000003,14
24027,Li2 Cu2 C2 S2 O14,0.0,4
24028,Li4 Sn8 S12 O48,0.18619999999999992,14
24029,Ba8 Y4 Cl28,4.5822,14
24030,Mg4 S4 O12,5.024900000000001,14
24031,Li8 Ti8 Mn10 O36,0.6931999999999996,55
24032,Fe1 C2 O6,0.0,148
24033,Mg4 Co2 O8,0.7200000000000002,227
24034,Tb4 Bi4 O14,0.0,227
24035,Li4 Fe4 B4 O12,2.7733999999999996,14
24036,Li4 V5 Cu1 Cl1 O15,0.5515,75
24037,Li4 Al2 Co2 O8,1.6912000000000003,7
24038,Li5 Mn5 V2 O12,0.258,5
24039,Cr2 Sb4 O12,0.0,58
24040,Li4 Mn5 Ni3 O16,0.0,8
24041,Li4 Mn4 B4 O12,2.6077,14
24042,Mn8 Al4 O16,0.21720000000000006,62
24043,Li4 Mn3 V2 Cr3 O16,0.6577999999999999,1
24044,Li5 Mn1 O5,0.0,1
24045,Fe4 Cu2 O8,0.0,141
24046,Mn3 V2 Co3 O16,0.16210000000000013,1
24047,Ba4 La4 I20,2.6982999999999997,14
24048,Li2 Ni2 C2 S2 O14,0.33140000000000003,4
24049,Ba4 La4 Cl20,3.9549999999999996,4
24050,Na12 Cu4 As2 C8 O32,0.0,203
24051,Li6 Cr3 Co1 P6 O24,1.6342,1
24052,Li4 Ti3 Mn3 Ni2 O16,1.1058,8
24053,Mn3 Co3 Sn2 O16,0.0,8
24054,Li36 Mn12 O36,0.7440999999999998,1
24055,Li4 Co3 Sb5 O16,0.0,8
24056,Li4 Ti6 O14,2.8666,11
24057,Na12 Cr4 As2 C8 O32,0.0,203
24058,Li12 Al4 Fe8 O24,2.1165,14
24059,Na12 Fe4 B8 As2 O32,0.0,203
24060,Li12 Cr4 O14,1.5266,13
24061,Fe5 Co1 P6 O24,1.4463,146
24062,Li4 Ni5 Sn1 O12,0.5036999999999998,1
24063,Cs8 Ce4 O12,1.8999,1
24064,Li6 Ni2 B10 O20,4.1018,2
24065,Na10 Ni4 As2 C8 O32,0.0,15
24066,Li6 Mn2 As2 C2 O14,2.3055000000000003,11
24067,Li5 Mn5 O12,0.5964999999999998,2
24068,Li3 V1 Cr3 O8,1.2581000000000002,166
24069,Nb1 Cr1 O4,1.0398,119
24070,Li4 Mn1 Te3 O12,0.0,1
24071,Mn3 Cu1 O8,0.0,12
24072,Li6 Mn2 Si2 B2 O14,1.5078999999999998,11
24073,Ba12 Y4 I36,2.8352999999999997,62
24074,Li1 Fe1 P1 O4,3.5669,82
24075,Ba8 La8 Cl40,3.4196000000000004,14
24076,V8 Si4 O28,2.4434,205
24077,Mn5 Co1 P6 O24,0.0,146
24078,Y8 Bi8 O28,0.0,4
24079,Li3 Fe3 Te1 O8,1.2469000000000001,12
24080,Li4 V2 Cr6 O16,0.7802000000000002,186
24081,Rb2 Li4 V4 B6 O18,2.4291,13
24082,Li4 Mn6 P6 O24,0.4490999999999996,5
24083,Li12 V12 Si18 O54,1.5838999999999999,145
24084,Nd4 V4 O14,0.0,227
24085,Mn3 Cr2 Co3 O16,0.0,8
24086,Sc2 P4 O14,0.0,4
24087,Li2 Co2 C2 S2 O14,0.6872,4
24088,Fe3 S6 O24,0.0,146
24089,Cr16 P8 O36,2.0185999999999997,14
24090,Nb4 V8 O28,0.0,205
24091,Li16 Cr16 P16 O64,1.9035,9
24092,Sn16 N16 O8,0.04240000000000066,1
24093,Cr3 S6 O24,0.0,146
24094,Mn12 Zn6 O32,0.03950000000000009,4
24095,Na4 Sb8 O22,1.8421999999999998,1
24096,Li7 Fe1 O5 F1,0.6829,1
24097,Mn8 O12 F4,0.0,1
24098,Li5 V5 Co2 O12,1.3290000000000006,5
24099,Li6 Fe4 Si4 O16,1.5111999999999999,7
24100,Li2 Fe4 O4 F6,1.7478000000000002,63
24101,Li4 Cr2 Fe3 Sb3 O16,0.8067000000000002,1
24102,Li12 Cr12 Ni8 O48,0.7284999999999999,14
24103,Mn12 O5 F19,0.0,1
24104,Li6 Co4 Si4 O16,0.5406999999999997,7
24105,Li2 Cr3 Fe1 O8,0.0,166
24106,Li4 Mn4 V4 O16,1.3694000000000002,95
24107,H20 C12 N20 O4,3.5996,14
24108,Cu4 H48 C12 S4 N24 O28,0.5787,60
24109,Li3 Nb1 V4 O8,0.0,12
24110,V1 Cu3 P4 O16,0.0,6
24111,Li4 Fe3 O8,0.0,160
24112,Fe3 Sb1 P6 O24,0.0,146
24113,Co3 Cu1 P4 O16,0.0,6
24114,Mn12 O10 F14,0.0,1
24115,Li10 Cr3 Fe3 Ni2 O16,1.6327000000000003,1
24116,Li8 Fe10 Co4 O24,1.2717999999999998,4
24117,Li3 Mn1 V4 O12,0.0,5
24118,Li4 Mn2 Cr3 Sn3 O16,0.039899999999999824,1
24119,Li4 Mn2 Fe3 Cu3 O16,0.0,8
24120,Na3 Li5 Mn5 O9,0.16880000000000006,1
24121,Li4 Mn3 Cr2 Sn3 O16,0.19809999999999972,1
24122,Li4 Mn3 V2 Sb3 O16,0.46609999999999996,1
24123,Li16 Cr16 P16 O64,1.9332000000000003,1
24124,Li2 Fe2 F8,3.1241,63
24125,Y16 O24,4.3921,61
24126,V12 P8 O44,1.3065999999999998,14
24127,Ti3 Nb1 Co2 P6 O24,0.18800000000000017,146
24128,Li4 Fe4 F12,3.3048,62
24129,Li20 Co21 O40,0.0,82
24130,Li4 Ti3 Mn2 Sn3 O16,1.3479999999999999,8
24131,Li6 Ti4 P6 O24,0.0,1
24132,Li4 Fe6 F16,3.1211,14
24133,Li8 V8 P8 O32 F8,1.6608,1
24134,Li3 Fe6 O3 F15,2.1765,1
24135,Li8 Fe12 F32,2.9908,88
24136,Ba4 Y4 Br20,3.8401,14
24137,Li8 Mn4 F20,0.7715000000000001,62
24138,Li24 Mg8 Ni8 O32,1.3007000000000002,88
24139,Li8 Mn4 C8 S2 O32,0.7852,70
24140,V4 O4 F12,1.8397,2
24141,V4 O4 F12,1.8410999999999997,2
24142,V3 Cu1 O8,0.0,8
24143,Li4 Ni3 Sn2 Sb3 O16,0.0,8
24144,Li16 Ti16 O32,0.0,1
24145,Mn8 O14 F2,0.0,1
24146,P16 W6 O58,1.9217,165
24147,Ti3 Cr2 Sb1 P6 O24,0.0,146
24148,Mn8 O8 F8,0.0,14
24149,Ti1 Fe3 Sn2 P6 O24,0.09609999999999985,146
24150,Mn8 O14 F2,0.0,4
24151,Ba24 Y4 Br60,3.8411,15
24152,Li4 V3 Cr2 Fe3 O16,1.0240999999999998,1
24153,Cr8 P12 S48,0.0,14
24154,Li4 Fe4 F16,3.9826,14
24155,Li8 Mn4 F20,2.519,19
24156,Li4 Ti3 Fe2 Cu3 O16,0.0,8
24157,Li5 Mn8 B8 O24,0.1593,1
24158,Na8 Co4 O12,0.0,15
24159,Li8 Mn4 F20,1.4327,33
24160,Fe10 O4 F16,1.415,2
24161,Li4 Mn1 Ni5 O12,0.46110000000000007,5
24162,Li4 Mn4 F16,0.3525999999999999,12
24163,Na10 La2 O8,1.9400000000000002,59
24164,Li40 La8 O32,3.9705,61
24165,Li6 V2 B4 O12,2.7524,2
24166,Mn12 O5 F19,0.0,1
24167,Li7 Co2 O6,0.9990999999999999,1
24168,Mn3 Cu2 Ni1 P6 O24,0.0,146
24169,Na4 Bi20 O32,2.286,7
24170,Li4 Mn2 P8 H6 O28,2.0745,14
24171,Li4 Cr16 P12 O48,1.0675,62
24172,Mn12 O5 F19,0.0,1
24173,Li4 V1 P6 H8 O22,2.4366,2
24174,Li10 Mn3 Cr3 Co2 O16,0.9534000000000002,1
24175,Li2 Mn2 P4 H2 O14,4.019400000000001,2
24176,Mn6 O10 F2,0.0,2
24177,Fe4 O4 F4,1.7395999999999998,40
24178,Fe6 O6 F6,1.7403000000000002,31
24179,Li4 V3 Fe1 O10,1.0781,115
24180,Li4 Mn8 P8 H20 O44,0.8278,14
24181,Li12 Cr10 O24,0.0,1
24182,Li2 Mn1 Cr3 O8,0.5804,12
24183,Li4 Fe2 F8,3.6637000000000004,63
24184,Li4 Mn6 V2 O16,0.38219999999999965,9
24185,Li8 Mn4 P12 O40,1.3778,14
24186,Mn8 O14 F2,0.0,7
24187,Mn12 O5 F19,0.0,1
24188,Sm1 Fe2 O4,0.0,8
24189,Li9 V12 Te7 O48,1.7585,1
24190,Li6 V6 Cr3 O18,0.0,12
24191,Li4 Co7 O2 F14,2.0318,1
24192,Mn2 H24 S4 N4 O20,4.2456,14
24193,Ti3 Co2 Ni1 P6 O24,0.02210000000000001,146
24194,Mn12 O5 F19,0.0,1
24195,Mn4 O7 F1,0.0,1
24196,Mn6 O2 F16,0.45210000000000006,1
24197,Li12 Mn8 P12 O48,0.5005,5
24198,Li3 Fe6 O3 F15,2.1569,1
24199,Li4 Fe4 P8 H4 O28,4.0674,2
24200,Na4 Cr16 O48,0.03270000000000006,88
24201,Zn4 Fe8 P12 O48,0.0,6
24202,Li4 Mn4 P4 O16,3.2910999999999997,62
24203,Li6 H12 N18 O6,3.6515,193
24204,Li8 Mn8 P8 O32,3.1353,14
24205,Pr2 Cu1 Ir1,0.0,225
24206,Li4 Ni7 P6 O24,3.4320000000000004,8
24207,Li8 Mn2 P12 O36,4.572100000000001,15
24208,Li4 Mn4 P4 O16,2.8385,2
24209,Li4 V8 O4 F20,1.8210999999999997,9
24210,Li12 Mn8 P12 O48,1.3951000000000002,15
24211,Li4 V8 O4 F20,0.8006,7
24212,O44 Pr24,0.0,2
24213,Ti1 Si1 Pt1,0.9930000000000003,216
24214,Si46,1.3094000000000001,223
24215,Ru1 Rh3,0.0,221
24216,Rb1 Na3,0.0,139
24217,Ho1 Ta1 Os2,0.0,225
24218,Sm3 Mg1,0.0,139
24219,Sm6 Cd2,0.0,194
24220,Yb3 In1,0.0,225
24221,K3 Hg1,0.0,139
24222,K3 Hg1,0.0,225
24223,Ce3 Zn1,0.0,139
24224,Cs2 Sr2 Si2 H2 O8,3.9558999999999997,4
24225,Cs4 Si2 H4 O8,3.8831999999999995,2
24226,Li6 Ti1 Cr3 P6 O24,0.3697999999999997,1
24227,Rb8 Tl8 F24,0.0,55
24228,Tb1 H3,0.0,225
24229,Mn2 O2,0.0,186
24230,Mn1 Co3,0.0,221
24231,Mn4 Zn2 O8,0.0,227
24232,Ca3 Cu6 P8 O32,0.046599999999999975,1
24233,Ca2 Co4 O8,2.1477999999999997,227
24234,Ca1 La2 Ti1 O6,3.2128999999999994,148
24235,Zn4 Sb4 F20,3.9532,14
24236,Mg6 Co4 O14,0.4802999999999997,36
24237,Mg6 Mo4 O14,1.8314000000000004,36
24238,Ca6 Cu4 Si8 O28,0.20460000000000012,15
24239,Ca6 Si8 Ag4 O28,0.7143999999999999,15
24240,Ca8 Bi16 O32,1.8612000000000002,8
24241,Ca4 Al2 Cu2 O10,0.0,1
24242,Zn4 Mo2 W2 O12,2.3471,14
24243,Mg6 Co12 O24,0.7321,1
24244,Mg4 Co2 Ir2 O12,0.0,14
24245,Si2 Co2 Nb8,0.0,124
24246,Li1 Sn1 S2,0.0,166
24247,Hf1 Pd1,0.0,221
24248,Cr2 Fe2 Co2 Ni2,0.0,6
24249,Na12 V8 Ge12 O48,0.0,230
24250,Li2 Ti6 P6 O26,0.0,11
24251,Ga1 Fe1 Ni2,0.0,225
24252,Ba2 Cl1 F3,5.7401,164
24253,Mn2 Co2 Sb2,0.0,129
24254,Mg6 Zn1 Ga1,0.0,38
24255,Li1 Mg6 Zn1,0.0,38
24256,Sn1,0.0,225
24257,Hf1 Mg15,0.0,187
24258,La1 Mg15,0.0,187
24259,La1 Mn2 Ni3,0.0,191
24260,Mg14 Ga1 Bi1,0.0,38
24261,Mg14 Sn1 Bi1,0.0,38
24262,Na1 Mg14 Bi1,0.0,38
24263,Mg14 Cd1 Cu1,0.0,38
24264,Mg14 Ga1 Cu1,0.0,187
24265,Te2 Mo2 W2 S6,0.0,156
24266,Te2 Mo3 W1 S6,0.0,156
24267,Te2 Mo3 W1 S6,0.0,156
24268,Te2 Mo2 W2 S6,0.0,156
24269,Te2 Mo3 W1 S6,0.0,156
24270,Te6 Mo4 S2,0.0,156
24271,Te2 Mo4 S6,0.0,156
24272,Te2 Mo3 W1 S6,0.0,156
24273,Te2 Mo4 S6,0.0,156
24274,Mg14 Cu1 Sn1,0.0,187
24275,Te2 Mo3 W1 S6,0.0,156
24276,Na1 Y1 Mg14,0.0,187
24277,Ca1 Mg14 Cd1,0.0,187
24278,Ca1 Y1 Mg14,0.0,187
24279,Ca1 Mg14 Zn1,0.0,38
24280,Te4 Mo2 W2 Se2 S2,0.0,156
24281,Te4 Mo2 W2 Se2 S2,0.0,156
24282,Te4 Mo2 W2 Se2 S2,0.0,156
24283,Te2 Mo2 W2 S6,0.0,156
24284,Te4 Mo2 W2 Se2 S2,0.0,156
24285,Te4 Mo2 W2 Se2 S2,0.0,156
24286,Te4 Mo2 W2 Se2 S2,0.0,156
24287,Te2 Mo2 W2 S6,0.4432999999999998,156
24288,Te6 Mo4 S2,0.0,156
24289,Te4 Mo3 W1 Se2 S2,0.0,156
24290,Te2 Mo2 W2 S6,0.0,156
24291,Te4 Mo3 W1 Se2 S2,0.0,156
24292,Te2 Mo3 W1 S6,0.0,156
24293,Te4 Mo3 W1 Se2 S2,0.0,156
24294,Te4 Mo3 W1 Se2 S2,0.0,156
24295,Mg6 V1 Zn1 O8,0.5391000000000004,123
24296,Mg6 Co1 Cu1 O8,0.0,123
24297,Li1 Mg6 Co1 O8,0.0,123
24298,Mg6 Zn1 Co1 O8,1.3358999999999996,123
24299,Mg6 V1 Zn1 O8,0.5317999999999996,123
24300,Mg14 V1 Cd1 O16,1.0717999999999996,123
24301,Ca1 Mg14 Cd1 O16,3.3305999999999996,123
24302,Mg30 Cu1 Bi1 O32,1.0977000000000006,123
24303,Mg30 Cu1 Bi1 O32,1.2297999999999991,123
24304,Mg30 Co1 Sn1 O32,0.7115,123
24305,Y1 Mg30 Ni1 O32,1.1450000000000005,123
24306,Y1 Mg30 Ni1 O32,1.4345000000000008,123
24307,Mg30 Mn1 Nb1 O32,0.49469999999999903,123
24308,Ca1 Y1 Mg30 O32,0.4532000000000007,123
24309,K1 Mg30 Al1 O32,4.4469,123
24310,Mg30 Ti1 Al1 O32,0.3437000000000001,123
24311,Mg4 Cd2,0.0,187
24312,Li1 Hf1 Mg30 O31,0.0038999999999997925,25
24313,Ba6 W6 F33,2.8531,145
24314,Ho2 Mg2 Mo4 O12,1.1227,7
24315,Ho2 Mg2 V4 O12,0.8795000000000002,1
24316,Ba4 Mg4 Sb4 F28,4.816199999999999,14
24317,Ba4 Ca4 Bi4 F28,4.8837,14
24318,Al2 W6 O16,1.4906999999999995,2
24319,Ba1 Y1 Mn1 Cu1 O5,0.0,99
24320,Mg4 V4 As8 O28,2.2409000000000003,14
24321,V4 Zn4 As8 O28,2.0538999999999996,14
24322,Ca2 Cr2 Ge4 O12,0.3882000000000003,15
24323,Mg2 Co6 P8 O28,2.3986,14
24324,Mg4 Ta4 Bi4 O20,3.6724,14
24325,Re4 Bi4 O20,2.8617,14
24326,Ca4 Sn8 P8 O32,2.4956,15
24327,Sn8 P8 O36,2.2294,62
24328,Al2 Ni4 O8,0.14280000000000026,74
24329,Mg2 Ni9 O13,0.0,12
24330,Mg4 Ta4 Sn2 O16,2.9823000000000004,1
24331,Mn2 P8 O24,0.0,2
24332,Sr4 Y2 Mn4 Al2 O14,0.3918999999999997,46
24333,Zn2 Fe1 W1 O6,2.1275999999999997,1
24334,Mg2 Co6 P6 O26,0.34299999999999975,11
24335,Y2 Ni6 Se4 Cl2 O16,1.8072,59
24336,Y2 Fe6 Se4 Cl2 O16,2.5517,59
24337,Ba6 Y3 Mn6 F33,3.7117999999999998,145
24338,Ba6 Y3 Fe6 F33,3.7986999999999997,145
24339,Pb2 S2,1.7193999999999998,12
24340,Lu2 Cu2 Sn2,0.0,194
24341,Sc1 Cu4 Sn1,0.0,216
24342,Sr8 Ca24 Mn32 O80,0.0,1
24343,Ba3 Sr5 Co3 Cu5 O24,0.0,1
24344,Sr8 Ca24 Ti4 Mn28 O80,0.0,1
24345,Er2 Cu2 Pb2,0.0,194
24346,La2 Cr2 As2 O2,0.0,129
24347,Yb2 Cu1 Ge6,0.0,38
24348,Te2 Mo2 W2 S6,0.0,156
24349,Te4 Mo3 W1 Se2 S2,0.19569999999999999,156
24350,Mn8 H8 O16,1.0368,1
24351,Ti6 C4,0.0,194
24352,Mg6 Sn6,0.0,8
24353,Y6 Mg2,0.0,194
24354,Mg8 Zn4,0.0,12
24355,Mg6 Zr2,0.0,194
24356,Y2 Mg10,0.0,38
24357,Mg2 Zn10,0.0,8
24358,Mg8 Ga4,0.0,38
24359,Mg2 Ga2,0.0,59
24360,Mg1 Sn1,0.0,187
24361,Ca1 Mg3,0.0,221
24362,Hf2 S2 O2,1.0634000000000006,129
24363,Fe4 Cu8 B4 O20,0.0,1
24364,Sr4 Ti4 O10,0.0,8
24365,Mg6 Cd1 Sn1,0.0,38
24366,Sr8 Ca24 Mn28 Fe4 O80,0.0,1
24367,Ca28 Mg4 Co28 Cu4 O80,0.0,1
24368,Li1 Si1 B1,0.21280000000000054,216
24369,V3 Ni2 P6 W1 O24,0.0,146
24370,V5 Fe1 P6 O24,0.0,146
24371,V1 Bi1 O4,3.0866000000000002,1
24372,V8 O8 F8,0.8187000000000002,2
24373,Ta1 O1 F3,2.7927,71
24374,Na1 Ti2 O4,0.0,44
24375,Li1 Mo1 P2 O8,1.4211,1
24376,Mg8 Si4,0.0,62
24377,Mn2 In2 Cu8,0.0,36
24378,Re4 Te8,0.7494000000000005,2
24379,Tl2 Fe4 S6,0.0,63
24380,Ba1 Tm1 Fe4 O7,0.0,82
24381,Ba2 Ge12,0.0,63
24382,Ba1 Lu1 Fe4 O7,0.0,82
24383,Ho1 Mo6 Se8,0.0,148
24384,Mg1 Si6 Ni6,0.0,65
24385,Ce2 Ga2 Co15,0.0,166
24386,Na3 In1 F6,4.7151,225
24387,Rb2 Nd1 Cu1 Cl6,2.3294,225
24388,Rb2 Ag1 Mo1 Br6,0.5050000000000001,225
24389,Rb2 Nd1 Ag1 I6,2.5523999999999996,225
24390,K2 Au2 Cl6,0.0,221
24391,K2 Li1 Nd1 Cl6,4.8605,225
24392,K3 As1 Cl6,3.4292,225
24393,K3 Tl1 Cl6,2.3522,225
24394,K2 Rb1 In1 F6,4.9697,225
24395,Cs1 Rb2 Bi1 F6,4.0523,225
24396,Rb2 Ga1 Ag1 Cl6,0.9373,225
24397,Rb2 Tl1 Au1 Cl6,0.0,225
24398,Cs2 Al1 Tl1 I6,1.5910999999999997,225
24399,K2 Gd1 Cu1 Cl6,0.7999,225
24400,K2 Sc1 Cu1 F6,1.2237,225
24401,Cs2 Rb1 Ga1 Cl6,3.3529,225
24402,Cs2 Y1 Cu1 I6,1.7212,225
24403,Cs2 In1 As1 I6,0.129,225
24404,Cs2 Hg1 Sb1 Cl6,0.0,225
24405,Rb2 Lu1 Au1 Cl6,1.8920000000000001,225
24406,Rb2 In1 Hg1 Br6,0.0,225
24407,Cs2 Al1 Ag1 Cl6,2.2588,225
24408,Rb2 Al1 Tl1 Cl6,3.7301,225
24409,Rb2 In1 Sb1 Br6,0.3069000000000002,225
24410,Rb3 Y1 I6,3.2901,225
24411,Rb2 In1 Sb1 I6,0.06590000000000007,225
24412,Na6 Cl6,4.3855,189
24413,K4 Ca1 W3 O12,2.4672,229
24414,Cu12 S12 Cl12,0.0,11
24415,Rb2 In2 H6,0.0,225
24416,Li4 Ni2 P2 O8 F2,3.8293,1
24417,Sr2 La14 Mg4 Fe12 O45,1.3739999999999997,1
24418,Sr14 Nb6 O29,3.0799999999999996,1
24419,P8 H80 C16 N8 O32,5.5277,1
24420,Li3 Mn1 Co2 O6,0.0,12
24421,Li6 Mn2 Co2 O10,1.2122000000000002,2
24422,Li5 Mn1 Co2 O8,0.0,12
24423,Li5 Mn1 Co2 O8,0.0,10
24424,Li5 Mn1 Co2 O8,0.4575,2
24425,Li8 Co6 O14,0.7703000000000002,2
24426,Li8 Co6 O14,0.8248000000000002,2
24427,Li7 Co5 O12,0.061900000000000066,2
24428,Li6 Mn3 Co1 O10,0.43179999999999996,8
24429,Li7 Mn2 Co3 O12,0.5613999999999999,2
24430,Li5 Mn3 O8,0.8525,10
24431,Li6 Mn3 Co1 O10,0.4872000000000001,1
24432,Li7 Mn2 Co3 O12,0.9854999999999996,3
24433,Li7 Mn4 Co1 O12,0.21160000000000023,10
24434,Li7 Mn4 Co1 O12,0.02519999999999989,10
24435,Li9 Co7 O16,0.6727999999999996,2
24436,Li9 Co7 O16,0.5023999999999997,2
24437,Li9 Co7 O16,0.7820999999999998,2
24438,Na12 Co4 O12,1.0369,6
24439,Mn1 Co9 O10,1.1942000000000004,2
24440,Li4 Mn4 B4 O16,0.7935000000000001,62
24441,Li8 Mn8 P16 O56,0.5907,1
24442,Li6 Mn12 P12 O48,0.10420000000000007,4
24443,Li2 Fe2 P2 C2 O14,0.1036,1
24444,Li4 Co4 S8,0.6739000000000006,227
24445,Co1 Cu2 Sn1 S4,0.0,121
24446,Li12 Mn2 V6 P12 O48,0.2431000000000001,1
24447,Li6 Mn3 Co1 P6 O24,0.5448,1
24448,Li10 Nb12 Ni2 O36,0.4990999999999999,1
24449,Co1 Cu2 Sn1 Se4,0.0,121
24450,Li4 V5 Co3 O16,1.2263000000000002,1
24451,Li4 Ti3 V3 Ni2 O16,1.1818,1
24452,Li4 Cr1 P2 O8,3.6342,2
24453,Li4 Nb1 Co3 O8,0.7717999999999998,2
24454,Li4 Mn2 Fe3 Sn3 O16,0.3785000000000003,1
24455,Li3 V4 Fe1 O12,1.1647000000000003,1
24456,Li12 Ti8 P12 O48,0.002500000000000391,14
24457,Li24 V8 P16 O64,2.1776,14
24458,Li12 Mn4 V4 P12 O48,0.23839999999999995,1
24459,Li12 Mn4 V4 P12 O48,0.1944999999999999,1
24460,Li12 Co8 P8 O32 F8,0.1471,29
24461,Li24 Cr8 P16 O64,2.8884,14
24462,Li8 Cr12 Cu4 O32,0.12230000000000008,1
24463,Li19 Mn4 P8 O35 F1,0.3296000000000001,1
24464,Li8 Cr4 P8 O28,2.6422,1
24465,Li17 Cr6 Si12 O42,0.3748,1
24466,La2 Al6 O12,4.0152,15
24467,In6 N2 O6,0.04349999999999987,5
24468,Li15 Ni8 P12 O48,0.0,1
24469,Fe18 O18 F18,0.0,6
24470,Ga12 N4 O12,0.8701000000000001,1
24471,Fe10 O4 F16,1.1426,1
24472,Cs4 Li4 O4,2.4162,62
24473,Ba16 Co14 O38,0.5049999999999999,43
24474,V6 H12 O20,1.8013,1
24475,V6 H12 O20,1.9352,1
24476,Na1 Zr1 Cu3 Se4,1.4317000000000002,215