Index,Composition,bandgap,spgN
25706,Cs1 Rb1,0.0,65
25707,Fe4 As4 H4 O19,0.3128,1
25708,Ce1 Zr3 O8,2.0342999999999996,38
25709,Cr24 P11 C1,0.0,25
25710,Cr8 In4 Cu6 Se24,0.0,12
25711,Ca2 La2 Fe2 O8,0.9362000000000004,20
25712,Be1 Zn1 S2,3.0424000000000007,160
25713,Ca1 V4 Co1 Cu2 O12,0.0,71
25714,Ca9 Y3 Co4 O24,0.0,1
25715,Ca4 Eu8 Be4 O20,0.0,33
25716,Ce2 Fe20 Si2 C1,0.0,2
25717,Ba1 Sn1 F4,3.9254,166
25718,Ba1 Nb1 N1 O2,0.05010000000000003,123
25719,Bi12 Pb2 Cl6 O17,1.0290999999999997,8
25720,Ce4 Cu5 Sb8,0.0,99
25721,Ba4 Sc1 Ti4 Bi1 O15,1.9358,65
25722,Ca3 Fe6 Sn2 O16,1.5140000000000002,6
25723,Ba2 In2 O5,0.48019999999999996,25
25724,Ba2 Fe8 Ni3 Sb2 O22,0.7587999999999999,12
25725,Al4 In1 Ag1 S8,1.0279999999999996,160
25726,Ba2 Li3 Y3 W8 O32,2.9555999999999996,1
25727,As7 Rh12,0.0,143
25728,Ag1 Mo12 Pb1 S16,0.0,148
25729,Ag28 H16 I8 O10 F20,0.3507,4
25730,Al2 Zr4,0.0,140
25731,Zr1 Pd1,0.0,221
25732,O6 Sr2 Tm1 Re1,0.0,225
25733,S10 Co2 Ba2 Pr4,0.0,140
25734,Si2 Yb1,0.0,191
25735,C2 Sc4 Ga2,0.0,194
25736,F18 Na6 Si3,6.8676,164
25737,Li14 O14 Rb2 Pr3,0.0,71
25738,C2 Fe4,0.0,58
25739,O14 Fe6 Yb4,0.4144000000000001,194
25740,O7 Ca3 Mn2,0.0,139
25741,Li2 O2 Ni1,2.9545000000000003,12
25742,O30 Cr20 Sr2,0.0,64
25743,O48 Mg12 Si12 Fe8,2.7116999999999996,230
25744,Mn4 Ge4 Tm4,0.0,62
25745,N1 Mn3 Ni1,0.0,221
25746,O12 S4 Pb4,3.6372000000000004,62
25747,C1 Co3 Sn1,0.0,221
25748,O6 S2 Pb2,3.2196,11
25749,H64 C16 N8 Mn4 Br16,2.7217000000000002,14
25750,O8 Na4 Fe4,2.0924,92
25751,O10 Ca4 Mn4,0.4343999999999997,55
25752,Li2 C2 O14 P2 Fe2,0.013899999999999968,4
25753,Li2 O8 F2 P2 W2,3.1005000000000003,2
25754,O16 Ni4 La8,1.5036000000000005,138
25755,Li2 O8 P2 Cu2,0.3915000000000002,43
25756,Li2 Nb4 P6 O24,0.0,2
25757,Si8 Sc6 Ni22,0.0,194
25758,O40 S8 Sn16,3.5104,114
25759,O24 P16 S4,3.6742,14
25760,Sc1 Sn1 Pt2,0.0,225
25761,Co2 P8 O24,0.0,12
25762,O28 P8 Co4,0.0,14
25763,Li4 O28 P8 Ni4,0.0262,1
25764,Al32 O48,3.0751999999999997,8
25765,F6 N1 Pr3,3.3097000000000003,1
25766,Si2 Pt2 U1,0.0,139
25767,Nd5 Er1 S8,0.0,82
25768,F5 K1 O1 Tl2 Zr1,3.1105,107
25769,O12 Ti4 Y4,0.0,62
25770,C2 Na2 Pt1,0.3662000000000001,164
25771,N3 O6 Tl3,1.6205000000000003,152
25772,Bi4 Li2 O24 P6,0.5400999999999999,2
25773,Br2 Na2 O10 H12,2.1492,2
25774,O24 Ca2 Cr4 Cu6 Sb4,0.6833999999999998,201
25775,Al16 Cu8 O32,0.008000000000000007,8
25776,Cd10 Ho20 Se40,0.7393000000000001,160
25777,Cu10 La21 O48 Sr3 Zn2,0.05939999999999923,1
25778,O24 P8 Fe2,0.0,15
25779,Li4 V2 P4 O16,1.4512999999999998,6
25780,Cr8 P12 O48,0.0,14
25781,Li6 Ni2 P4 O16,0.18869999999999987,11
25782,Mn2 O18 P6,1.0507,2
25783,Nb12 Si4 Ni8,0.0,227
25784,Mg12 Ca4 Si12 O40,3.4088000000000003,2
25785,Pr8 Ni4 O16,1.3359999999999994,138
25786,Co4 Se4 O20 H16,2.7463,14
25787,In2 Zn1 S4,0.13640000000000008,160
25788,U4 Cu20 Sn4,0.0037000000000002586,194
25789,Ag4 Cu4 V4 O16,0.0,62
25790,Br4 N4 O8 F16,2.341,62
25791,Y16 Cr8 S32,0.0,29
25792,Lu4 Ru4 O14,0.0,227
25793,Zn8 Ga8 N8 O8,0.31420000000000003,26
25794,Zn2 B8 O14,5.374300000000001,63
25795,Sb8 Os4 C16 O16 F48,3.6738,33
25796,Na6 Fe10 O18,1.7229999999999999,15
25797,Mo4 S12 N8 Cl32,0.5145,14
25798,Na4 Np12 F52,0.0,194
25799,Cd4 Cu8 B8 O24,0.10600000000000032,14
25800,Sr2 Co1 Cl2 O2,0.19259999999999966,71
25801,Ca2 Mg2 Si4 O12,4.6554,15
25802,Fe2 W2 Cl2 O8,2.2868,129
25803,Tb2 Ba2 Mn4 O12,0.0,65
25804,N3 Fe17 Ce2,0.0,166
25805,Ca3 Fe2 Cl2 O5,1.0816,139
25806,B4 P4 Br8 N4 Cl12,2.9078,64
25807,Cr1 Cu1 Se2,0.08099999999999952,160
25808,Zr2 Te2,0.0,194
25809,O5 Cu3 Sr2,0.0,71
25810,Sr1 Cr2 As2,0.0,139
25811,Sn2 H32 C8 N4 Cl12,2.8562000000000003,58
25812,Ni2 Se2,0.0,129
25813,Tl8 Zn4 N48,3.0564,29
25814,Tm2 Pt4,0.0,227
25815,Dy6 Se8,0.0,220
25816,Ho1 Si2 Pt2,0.0,139
25817,Li4 Bi8 P12 O48,0.5196000000000001,14
25818,Mn8 P6 O24,0.02499999999999991,9
25819,O10 Ti3 Ag2 La2,1.9412000000000003,139
25820,Co4 H56 C12 N4 Cl12 O8,2.6365,62
25821,K4 P4 H8 O16,4.919,19
25822,Rb4 Pb4 F12,4.294499999999999,1
25823,Cs1 Li2 F3,7.0403,139
25824,Cs3 Li1 Cl4,4.764,1
25825,Mn4 Fe4 Bi4 O20,0.0,55
25826,Sn1,0.0,69
25827,Re4 Te32 Cl24,0.21110000000000007,15
25828,V6 H6 O18,2.1038,4
25829,V6 H6 O18,2.1077,1
25830,Al8 H24 O24,4.3037,1
25831,Sr1 H16 O10,3.5178000000000003,1
25832,O12 Ca2 Cu2 Ge4,0.0,15
25833,Zn8 Si8 O24,3.3367999999999993,14
25834,Cu4 H4 Cl4 O4,0.0,14
25835,Ca4 Mg4 Si4 O16,4.6952,62
25836,Ru2 C6 Br4 O6,2.1206,12
25837,Na24 Si48 O108,4.4699,14
25838,Re4 Te12 Br20,1.2721000000000002,4
25839,Li2 Sn4 P6 O20,2.898,11
25840,Zr6 Sc8 O24,3.9473,1
25841,Mg2 Zr8 O18,3.7198,12
25842,Zr6 Sc8 O24,3.9744,2
25843,Mg2 Mo12 Se16,0.0,2
25844,Sr18 Th1 Cl40,2.2611,166
25845,Cu27 Se20,0.0,160
25846,Te4 Pb4,0.7206000000000001,62
25847,K57 Se34,0.0,1
25848,Sn5 Mo36 S48,0.0,2
25849,K20 Pt10 I45,0.0,38
25850,La8 Fe2 Se12 O2,0.0,186
25851,Li4 Mo3 O8,1.8220000000000005,166
25852,Mn2 Sb4 O12,0.0,12
25853,Cr14 Mo1 O24,0.42410000000000014,2
25854,Na2 Li5 Al7 Si29 O72,3.2399999999999998,1
25855,Yb6 Na2 Ti4 Sb4 O28,0.0,1
25856,Li4 Mn4 P8 O28,1.5734,14
25857,Mn1 Ge4 H24 C8 S10 N2,1.4138000000000002,82
25858,Cu4 H32 C8 N4 Cl12,0.3531,15
25859,Cu4 H32 C8 N4 Cl12,0.20359999999999998,2
25860,Ca8 Mn8 O22,0.0,4
25861,Li4 B24 H52 O14,5.2083,63
25862,Mn8 P6 O24,0.0,161
25863,Li6 Cr8 P18 O64,0.5308999999999999,114
25864,Mg11 Fe30 O56,1.1207000000000003,1
25865,Li4 Co6 O12,0.0,1
25866,Rb10 Al24 Cd7 Si24 O96,2.2832,1
25867,Mg16 Si8 H1 O32,0.0,1
25868,Cs2 H14 C8 O20,3.2358000000000002,2
25869,H28 Ru2 S4 N8 O12,2.4349,14
25870,K2 P2 H10 C4 S2 N6 O8,3.7596,2
25871,Tb4 Pt4,0.0,129
25872,Pu2 Co2 H48 C8 N12 O26,0.5439,2
25873,Li12 Cu2 O8,0.18789999999999996,41
25874,Ca2 Gd4 O8,3.26,141
25875,Ba4 Sr8 I24,3.2551999999999994,14
25876,Li2 Cu4 F8,0.0,1
25877,Li4 Cu4 F8,1.5931,14
25878,Li2 Cu1 F4,0.0,65
25879,Li3 Ti4 O8,0.0,12
25880,Eu4 O3 F7,0.0,3
25881,Sb6 O8 F2,2.3882000000000003,1
25882,Pr2 Ti2 O6,0.0,167
25883,Gd2 As2 O8,2.7232,13
25884,P2 Cu6,0.0,164
25885,Ga12 N4 O12,0.8802999999999999,1
25886,Li1 Sn2 P4 H3 O16,2.8496999999999995,1
25887,W4 N8,0.8351,33
25888,Zr10 N10 O4,0.0,8
25889,Ba4 La4 I20,2.5083,14
25890,Cs2 In2 O4,1.9381,194
25891,Ba8 O2 F12,3.6833,186
25892,Li4 Ti3 O8,2.1569000000000003,12
25893,Ti1 Nb1 O4,0.0,119
25894,Zr6 N6 O3,1.8150000000000004,12
25895,Sn4 P4 O14,2.7152,15
25896,Ba4 Y4 F20,6.908099999999999,19
25897,Na2 Cu1 O2,0.0,71
25898,Rb8 Zr4 O12,3.2835,64
25899,Ta4 Nb4 O20,2.3307,62
25900,Lu4 H12 O12,4.1776,14
25901,Er4 Ti4 O12,0.0,62
25902,Gd1 Bi4 O8,0.0,1
25903,Li1 Co1 S2,0.6835999999999998,160
25904,Rb8 H32 O20,3.5875,9
25905,Li6 Si4 Bi6 O20,3.169,7
25906,Li4 Sn6 P8 O28,3.0831000000000004,2
25907,Sr6 La8 O18,3.8438,9
25908,In4 H12 O12,2.3237,1
25909,Ca8 Si4 O16,4.1639,14
25910,Li12 Si4 Bi4 O20,3.2412,33
25911,Li8 Cu4 Si4 O16,0.0,62
25912,Li4 Cu4 P4 O16,0.0,7
25913,Li8 Cu4 F16,0.8173,130
25914,Li8 Cu16 F56,0.0,33
25915,P1 Ge1,0.0,107
25916,Li2 Ag2 F6,0.0,161
25917,Li2 Bi8 P14 O48,3.8213999999999997,2
25918,H72 Ru4 C24 S12 Cl12,0.3309,33
25919,Li2 Sb2 P8 O24,4.1158,15
25920,Li8 Sn4 B8 O24,3.2075000000000005,4
25921,Sb14 O12 F18,2.7586999999999997,39
25922,Li4 Ti11 O24,2.2962,1
25923,Li6 Sb6 P8 O32,2.8600000000000003,4
25924,Na5 Ti12 O24,0.0,6
25925,Li2 Si4 Bi2 O12,3.3344,15
25926,Ce4 Y2 O11,1.8249,115
25927,Li2 Bi2 P4 O14,3.5500999999999996,4
25928,Na4 Ti7 O16,2.3982,10
25929,Na6 Ti4 P6 O24,0.0,148
25930,Li2 Cu2 P6 O18,0.47219999999999995,9
25931,Sr6 Cr6 O18,0.6900999999999997,1
25932,Li10 V2 P6 O22,3.0128999999999997,2
25933,Li4 Cr3 Ni1 P4 O16,1.4589999999999996,6
25934,Li9 Cr5 Si2 O16,2.8319000000000005,10
25935,Li4 Nb3 V3 Cr2 O16,0.20309999999999961,8
25936,Li12 Mn12 P12 O48,3.5980999999999996,14
25937,Li12 Mn12 P12 O48,2.9955,14
25938,Li4 Mn4 P4 O16,3.4920999999999998,37
25939,Li2 Ti1 Co1 O4,0.18149999999999977,119
25940,V5 Co1 O12,0.04479999999999995,5
25941,Li8 Co4 P8 O28,2.6475999999999997,15
25942,Li12 Co4 P4 O20,0.0,33
25943,Li4 V1 Cr1 W2 O12,1.3739000000000003,1
25944,Mn4 Co2 P6 O24,0.0,167
25945,Li5 Co2 Cu3 O10,0.0,2
25946,Li24 Co24 P24 O96,2.9874,169
25947,Li6 Ni6 P6 O24,3.1407,173
25948,Li3 V5 O10,1.1776,2
25949,Li4 Cu2 F10,0.11970000000000014,1
25950,Li4 Fe4 P8 O28,2.5368,14
25951,Li12 Fe4 Si8 O28,2.5115999999999996,62
25952,Li12 Fe12 P12 O48,3.6497,33
25953,Li4 Fe4 Si4 O16,1.8255,95
25954,Li6 Co4 Si4 O16,0.3151999999999999,7
25955,Li8 V4 Fe6 O20,0.7836000000000003,2
25956,Li2 Mn10 P6 O26,2.0967,2
25957,Li4 Fe4 Si4 O16,2.5507,33
25958,Li3 Ti3 V1 O8,0.0,12
25959,Li16 Mn8 Si16 O52,1.3294000000000001,33
25960,Mn6 O9 F3,0.0,38
25961,Fe12 O12 F12,0.6595,6
25962,Fe12 O12 F12,1.2563,6
25963,Fe12 O12 F12,1.3562999999999998,6
25964,Li4 Mn6 F16,3.2135,14
25965,Fe8 O8 F8,1.382,6
25966,Fe8 O2 F14,1.6849,2
25967,Li4 V4 P8 O28,2.1773,14
25968,Li1 Fe1 Co2 O6,0.33989999999999987,12
25969,Li4 Ti3 Co3 Ni2 O16,0.7469000000000001,1
25970,Li8 V8 P8 O40,1.6263999999999998,4
25971,Li9 V9 P12 O48,2.1547,1
25972,Li2 V4 P6 O24,1.2041,1
25973,Li2 V4 P10 O30,2.7701000000000002,7
25974,Li4 Fe2 Si4 O12,3.3924999999999996,4
25975,Li3 Fe2 Si2 O8,1.1402999999999999,1
25976,Li3 Fe2 P4 H1 O14,4.0950999999999995,2
25977,Li12 Co4 O8 F4,1.6606999999999998,58
25978,V4 O6 F4,1.5030000000000001,2
25979,Rb4 Li4 V4 P8 O32,1.9844,14
25980,V6 O4 F12,0.0,14
25981,V4 O4 F6,1.2749000000000001,9
25982,V4 O4 F12,3.0291,76
25983,Li1 Mn7 O3 F9,1.3932,1
25984,Li1 Nb1 Co3 P6 O24,0.0,1
25985,Li4 Fe8 B8 O24,1.5273,1
25986,Li4 Fe8 B8 O24,0.0,7
25987,Na6 Mn2 O6,0.6771000000000003,2
25988,Li12 Mn2 V6 P12 O48,0.05920000000000014,1
25989,Li4 Fe8 B8 O24,1.7779,1
25990,Li4 Fe8 B8 O24,1.2207,1
25991,Li4 Fe8 B8 O24,1.5430000000000001,1
25992,Li8 Mn8 F28,0.5693,4
25993,Mn10 O15 F5,0.0,38
25994,Li2 Cr1 P2 O8,0.0,147
25995,Li8 V6 P16 O58,1.0256,9
25996,Mn4 O4 F4,0.8831,62
25997,Li10 V8 O24 F2,2.4582,14
25998,Li10 Fe4 B4 O16,2.0834,7
25999,Li4 V4 O2 F12,1.8983999999999999,2
26000,Li8 Ni8 P8 O32,3.2237,14
26001,Li6 Fe9 Co1 O20,0.0,6
26002,Li6 Cr2 C6 O18,2.1942,40
26003,Li3 Ti2 Ni2 O8,0.5497000000000001,12
26004,Li4 Co7 O2 F14,1.9331999999999998,2
26005,Li4 Co7 O2 F14,2.0283,2
26006,Mn8 O14 F2,0.0,4
26007,Na10 V2 O10,2.447,15
26008,Li4 Mn4 P4 O16,3.2011,60
26009,V2 F8,1.8728,1
26010,W2 O2 F8,4.8740000000000006,2
26011,V1 Fe1 P2 H2 O10,1.123,2
26012,Li6 V6 P16 O58,1.1247,9
26013,Bi4 P8 O28,0.02429999999999999,14
26014,Li2 V4 O1 F12,1.6858,1
26015,Li40 Bi8 S32,1.8897,61
26016,Ti3 O6,2.0938,1
26017,Li16 Ti4 S16,1.9017000000000002,14
26018,Li6 Fe2 C6 O18,2.3735,40
26019,Li3 Ni5 O1 F11,3.1784,1
26020,Li6 Ni9 P8 O32,2.5553999999999997,2
26021,Li12 Fe4 P4 O20,2.9765,33
26022,Cr4 Co4 O16,1.5962,62
26023,Li6 Cr1 Fe1 P2 C2 O14,2.4073,6
26024,Li4 Mn8 O4 F12,1.9013,62
26025,Li2 Co2 Si4 O12,1.2376,15
26026,Li3 Co4 S8,0.0,8
26027,Fe3 Cu1 Ni2 P6 O24,0.0,146
26028,Li2 V2 P4 H2 O14,2.6279,2
26029,Li6 V6 Si6 O24,0.6395,146
26030,Li4 Mn8 P8 O32,0.14159999999999998,7
26031,Li12 Mn4 P4 C4 O28,3.4721,1
26032,Li2 Ni2 P2 H2 O10,0.017099999999999893,2
26033,Li4 Mn2 Te1 W1 O12,1.1174999999999997,1
26034,Li4 V4 S4 O16 F12,1.5144000000000002,33
26035,Li4 Bi2 P2 C2 O14,3.6529,11
26036,Li8 Sb1 S6,0.0,148
26037,Sm2 Ta2 O8,3.4665999999999997,36
26038,Li6 Fe12 P12 O48,1.4736000000000002,1
26039,Li6 Cu2 As2 C2 O14,0.14360000000000017,11
26040,Na8 Sb4 C8 S2 O32,2.0394,70
26041,Ba8 Y8 Cl40,4.652,14
26042,Li12 Sn4 B8 S2 O32,3.4699999999999998,203
26043,Li24 Nb8 S32,2.0684,43
26044,Sr6 Ta4 O16,4.082,15
26045,Li4 Cu4 P4 O16,0.0,15
26046,Ho1 Bi12 O20,0.0,197
26047,Y1 Bi12 O20,0.0,197
26048,Na8 B8 Sb4 S2 O32,1.8820000000000001,70
26049,Li3 Mn3 B3 O9,1.9726,174
26050,Ca8 In8 O20,1.3036000000000003,62
26051,Co4 P4 O16,0.9818999999999999,2
26052,Sc2 Fe2 O6,1.0123000000000002,187
26053,Li4 Ti2 Cr3 Co3 O16,0.0,1
26054,Li2 Al2 Co2 O6,2.1941,2
26055,Gd8 Ti4 O20,2.8642,62
26056,Fe5 Ni1 P6 O24,0.0,146
26057,Li8 V8 B16 O40,2.1161000000000003,14
26058,La4 Bi4 O16,0.6699000000000002,14
26059,Mn8 P4 O20,0.8653999999999997,14
26060,Li36 Al4 Co8 O32,2.3287000000000004,62
26061,Li6 Si2 Sn2 B2 O14,3.5191,11
26062,Li24 V4 B12 O36,2.4695,14
26063,Li8 B4 Se4 O16,2.3328,14
26064,Li4 Mn3 Co3 Cu2 O16,0.0918000000000001,8
26065,Li14 Cr2 O12,0.8718,1
26066,Li3 V1 Fe4 O8,0.10720000000000063,12
26067,Na6 Cu2 Si2 C2 O14,0.0,11
26068,Li4 Fe6 Cu2 O16,0.0,9
26069,Li12 Mn4 B8 O24,1.4308,14
26070,Li6 Cr6 Ga2 O16,0.6843000000000004,1
26071,Li8 Co4 B4 O16,1.0322,14
26072,Li3 Ti1 Mn4 O8,0.0,12
26073,Li4 Co8 O16,0.0,9
26074,Li7 Cr3 W2 O16,1.4382000000000001,8
26075,Li4 V4 Sn2 P6 O24,0.2662,5
26076,Fe3 S6 O24,0.0,146
26077,Li5 Mn2 Fe5 O12,0.8106,5
26078,Li3 Zr4 P6 O24,0.048199999999999577,1
26079,Li4 V3 Co3 Te2 O16,1.3183999999999996,1
26080,Li4 Ti3 Cr2 Fe3 O16,0.0,8
26081,Nb1 Cu3 P4 O16,0.0,6
26082,Li4 Nb8 O22,2.5441,15
26083,Li4 Bi2 As2 C2 O14,3.367,11
26084,Li4 V4 P4 O20,3.1420000000000003,19
26085,Fe2 H8 S4 O20,0.07240000000000002,2
26086,Fe1 Sn3 P6 O24,0.0,146
26087,Li8 Cr8 O28,2.4504,14
26088,Li4 Co1 Ni5 O12,0.18840000000000012,1
26089,Na6 Cu2 B2 As2 O14,0.0,11
26090,Sm8 Zr8 O28,3.9633999999999996,4
26091,Lu2 Bi2 O6,2.3018000000000005,148
26092,Cu1 Hg1 O2,0.0,12
26093,Ba2 La4 Cl16,3.9733,15
26094,Na2 Cr2 As2 C2 O14,0.9438,4
26095,Li3 Cr1 Ni2 O6,0.0,12
26096,Mn5 Fe1 O12,0.0,12
26097,Li5 Fe3 Cu2 O10,0.4740000000000002,2
26098,Cr4 Bi4 O16,1.1178999999999997,14
26099,Mn3 Cr1 O8,0.7605,8
26100,Mn7 V1 P12 O48,0.0,1
26101,Cr1 Fe3 Cu2 P6 O24,0.0,146
26102,Na12 Co4 B8 O24,1.0233999999999999,14
26103,Li12 Fe12 P12 O48,3.5446999999999997,14
26104,Co6 O2 F10,0.35239999999999994,12
26105,Sn16 N16 O8,0.06409999999999982,1
26106,Mn12 Bi4 O32,0.7575000000000001,212
26107,Li12 Fe12 P12 O48,3.1003000000000003,14
26108,Na1 Mn1 O2,1.2883,12
26109,Cr2 Ni2 P4 O16,0.0,11
26110,Li4 V2 Co3 Sb3 O16,0.8033999999999999,8
26111,Li2 Co2 P2 O8,2.4368,2
26112,Li4 Mn3 Fe2 Sb3 O16,0.5445000000000002,8
26113,Co3 P6 W1 O24,0.1457,146
26114,Li12 Sb8 P12 O48,3.5203999999999995,14
26115,Li4 Co3 Ni2 Sn3 O16,0.8542000000000005,8
26116,Li20 La12 Sb8 O48,3.1211,1
26117,Ti16 N16 O8,0.9763000000000002,1
26118,Bi24 B2 O39,2.0629,1
26119,Ag4 Au4 O12,0.24230000000000018,227
26120,Mn1 V5 O12,0.5676000000000001,5
26121,Na12 Co4 O12,1.8316,198
26122,Ti16 N16 O8,0.9256000000000002,1
26123,Ti16 N16 O8,1.1019000000000005,1
26124,Ti16 N16 O8,1.0187999999999997,1
26125,Ca2 Ti6 N2 O11,1.8034999999999997,8
26126,Li4 V4 F16,1.4987,1
26127,Li5 Fe3 Ni2 P6 O24,2.3929,1
26128,Li12 Fe8 F28,3.3770000000000002,14
26129,Li8 Fe4 O2 F16,2.6715,1
26130,Mn7 Sb1 P12 O48,0.0034000000000000696,1
26131,Mn1 V3 O8,1.0782999999999998,1
26132,Li3 V6 O3 F15,1.834,145
26133,Li3 V6 O3 F15,1.2137,1
26134,Mn6 O10 F2,0.0,1
26135,Na10 Cr4 P2 C8 O32,0.04079999999999995,15
26136,Sn16 N16 O8,0.7330999999999994,1
26137,Li4 Mn2 V3 Sn3 O16,1.0476,1
26138,Li5 Mn8 B8 O24,0.41969999999999996,1
26139,Li8 V16 O8 F40,1.6704,1
26140,Mn3 Nb1 Ni2 P6 O24,0.0,146
26141,Li4 V1 Te1 W2 O12,1.658,1
26142,Ti3 Nb1 Fe2 P6 O24,0.0,146
26143,Na10 Cr4 P2 C8 O32,0.12509999999999977,43
26144,Li4 Mn2 F12,2.3745000000000003,128
26145,Ti3 Fe2 Sb1 P6 O24,0.028900000000000148,146
26146,Li12 Fe6 F24,2.565,148
26147,Li1 Fe7 O3 F9,2.1882,1
26148,Mn8 O4 F12,0.0,65
26149,Li5 Mn8 B8 O24,0.1867000000000001,1
26150,Li4 Co2 B2 O8,1.3407999999999998,20
26151,Li5 Mn8 B8 O24,0.0,1
26152,Fe10 O6 F14,1.3015999999999999,1
26153,Fe8 O2 F14,1.3306000000000002,1
26154,Li4 Cr4 P4 O20,0.40800000000000014,15
26155,Li4 Mn4 F12,3.2957,12
26156,Mn8 O12 F4,0.0,12
26157,Li20 La12 Nb8 O48,3.4842,1
26158,Li4 Cu2 P2 O8,1.2121999999999993,1
26159,Dy4 Ti4 O12,0.0,62
26160,Na10 Co4 As2 C8 O32,0.0,22
26161,Li8 Cr8 B24 H24 O72,1.4087,60
26162,Fe8 O2 F14,1.6630000000000003,9
26163,Li3 Fe1 O4,0.0,119
26164,Li18 Mn6 Si12 O42,0.9104999999999999,1
26165,Li20 Fe4 O16,2.3853,1
26166,Li2 V2 P6 H16 O26,2.7241,2
26167,Li2 Fe4 O4 F6,2.0132,26
26168,Li3 Fe9 Si6 O24,0.6305999999999998,1
26169,Mn6 O7 F5,0.0,5
26170,Li3 Mn2 Cr2 O8,0.1288999999999998,2
26171,Li8 V10 Cr4 O24,0.9478,4
26172,Li6 Mn3 Si3 O12,2.9335,152
26173,Li5 V6 O5 F19,0.24930000000000002,1
26174,Mn12 O7 F17,0.2056,1
26175,Hf4 Zr4 O16,3.8823999999999996,1
26176,V4 O3 F5,0.5565000000000002,44
26177,Li3 Ti1 Cr2 O6,0.0,12
26178,V5 Sn1 P6 O24,0.04029999999999978,146
26179,Li4 Fe3 Co3 Sn2 O16,0.0,1
26180,F3 Mg1 Cs1,6.7028,221
26181,Li4 Mn6 B6 O18,0.0,2
26182,Dy1 Bi12 O20,0.0,23
26183,Li4 Mn12 P12 O44,3.2093000000000003,14
26184,Li4 Mn16 P12 O48,3.0575,56
26185,Mn12 O5 F19,0.0,1
26186,Mn6 O5 F7,0.0,1
26187,Fe8 S10,0.0,1
26188,Li8 Cr4 Fe10 O24,1.2824999999999998,4
26189,Li8 Fe4 O8 F4,1.8875000000000002,5
26190,Li2 Mn4 P4 H18 O26,1.0564,32
26191,Li4 Cr4 Si4 O16,2.8981,33
26192,Mn8 O14 F2,0.0,5
26193,Li24 Cr6 F36,2.5802,5
26194,Mn6 O4 F8,0.0,1
26195,V2 Fe4 P6 O24,0.0,167
26196,Li4 Fe8 O4 F12,2.3114999999999997,44
26197,Li2 V8 O2 F22,0.0,2
26198,Li24 Mn24 P24 O96,3.1409000000000002,170
26199,K2 Na4 Li6 Zr4 Si24 O60,0.0,5
26200,Li4 Fe4 Si4 O16,2.7299999999999995,33
26201,Li16 Ni8 P12 O48,0.005199999999999982,60
26202,Li10 Fe8 P16 O56,1.3356000000000001,1
26203,Li4 V8 O4 F20,1.6439,5
26204,Sb16 Cl4 O21,1.3710000000000004,1
26205,Li6 Mn5 Co1 O12,0.7322000000000002,2
26206,Li2 Ni8 P6 O24,2.1919999999999997,15
26207,Li4 V8 O4 F20,0.7683,1
26208,Li4 Mn4 P4 O16,3.3772,33
26209,La2 Cu1 Ru1,0.0,225
26210,Th3 Nb12 O36,1.9434,71
26211,K6 Al32 O51,2.8209999999999997,8
26212,Li6 V6 P16 O58,0.5869,1
26213,Li12 Fe6 Si12 O36,2.9174,43
26214,Re1,0.0,225
26215,Tm2 Os1 Rh1,0.0,225
26216,Li2 Ce1 Tl1,0.0,225
26217,Ce1 Y1 Mg2,0.0,225
26218,Fe4 S4 Cl28,0.6743000000000001,4
26219,O4 Pd1 La2,0.0,139
26220,La2 Zn1 Ru1,0.0,225
26221,La2 Ir1 Au1,0.0,225
26222,Rb2 Na6,0.0,194
26223,K4 C4 S4 N4,4.2439,57
26224,Mg3 Ni3,0.0,155
26225,Sm1 Th3,0.0,221
26226,Sm3 Th1,0.0,139
26227,Th2 Mg6,0.0,194
26228,Y6 Th2,0.0,194
26229,Ca6 Ti2 Ni2 O12,3.1807,167
26230,Mn3 Co2 Sn1 P6 O24,0.0,146
26231,H24 C4 I4 N4,4.0743,57
26232,H12 C2 I2 N2,3.9223,11
26233,Tl2 S2,0.06160000000000032,166
26234,Ti4 Zn1 S8,0.0,12
26235,Ca4 Mn2 N4,0.0,12
26236,Cr4 S8,0.0,12
26237,Zn4 Mo4 F20,3.34,14
26238,Ca12 Si12 W8 O48,2.9333,230
26239,Ca6 Bi12 O24,1.9661000000000004,8
26240,Te1 W1 O6,1.4416000000000002,1
26241,Zn4 Cr4 As4 O20,1.9964999999999997,19
26242,Zn2 Co1 W1 O6,2.3619,1
26243,Ge8 W4 O24,2.2431,14
26244,K1 Na1 H2,2.5014000000000003,123
26245,Cu2 I2,0.9427000000000003,63
26246,Pb2 S2,0.6898999999999997,186
26247,Na2 Ti6 P6 O26,0.0,11
26248,Mg3 Al1,0.0,25
26249,Mg6 Cd1 Sn1,0.0,38
26250,Mg6 Al1 Cd1,0.0,38
26251,Li1 Mg6 Al1,0.0,38
26252,Li1 Mg6 Al1,0.0,38
26253,Ho1 In1 Pt4,0.0,216
26254,U2 Mo2 C3,0.0,12
26255,Ce2 Fe2 Si4,0.0,63
26256,Mn1 Cu2 Si1 Te4,0.0,121
26257,Te2 Mo1 W2 Se2 S2,0.0,156
26258,Te2 Mo1 W2 Se2 S2,0.0,156
26259,Te2 Mo1 W2 Se2 S2,0.0,156
26260,Te2 Mo2 W1 Se2 S2,0.0,156
26261,Te2 Mo2 W1 Se2 S2,0.0,156
26262,Te2 Mo2 W1 Se2 S2,0.0,156
26263,Na1 Mg14 Ga1,0.0,187
26264,Li1 Mg14 Bi1,0.0,38
26265,Li1 Ce1 Mg14,0.0,187
26266,Mg14 Cd1 Cu1,0.0,187
26267,Li1 Mg14 Zr1,0.0,38
26268,Ca1 Mg14 Ga1,0.0,38
26269,Li1 Ca1 Mg14,0.0,38
26270,Mg14 Al1 Sb1,0.0,187
26271,Mg14 Al1 Sn1,0.0,38
26272,Te6 Mo1 W3 Se2,0.005700000000000038,156
26273,K1 Mn1 Te2,0.0,119
26274,Mn1 Rb1 Te2,0.0,119
26275,Te2 Mo1 W3 Se2 S4,0.0,156
26276,Te2 Mo2 W2 Se2 S4,0.0,156
26277,Te2 Mo1 W3 Se2 S4,0.0,156
26278,Te2 Mo1 W3 Se2 S4,0.0,156
26279,Te2 Mo2 W2 Se2 S4,0.0,156
26280,Te2 Mo2 W2 Se2 S4,0.0,156
26281,Te6 Mo1 W3 Se2,0.10460000000000003,156
26282,Te4 Mo4 Se2 S2,0.025299999999999656,156
26283,Te2 Mo2 W2 Se2 S4,0.11709999999999976,156
26284,Te2 Mo2 W2 Se2 S4,0.0,156
26285,Te4 Mo4 Se2 S2,0.0,156
26286,Li1 Mg6 Al1 O8,3.4881,123
26287,Mg6 Mn1 Co1 O8,0.0,123
26288,Mg30 Nb1 V1 O32,0.6753,123
26289,Mg30 Ti1 Fe1 O32,0.4916000000000009,123
26290,K1 Mg30 Co1 O32,2.3646,123
26291,Mg30 Ti1 Zn1 O32,0.0,123
26292,Sr1 Mg30 Cd1 O32,3.5065999999999997,123
26293,Mg6 Cd6,0.0,38
26294,Mn8 Zn4 P8 O32,2.4822999999999995,15
26295,Ba4 Zn4 Sb4 F28,4.3858,14
26296,Cr8 Cu8 O32,0.0,14
26297,Mg8 Cu8 Si16 O48,0.3771,61
26298,Ca2 Sb4 O8,2.5223999999999998,1
26299,Zn2 Sn2 P4 O14,2.8288,2
26300,Ca8 Cr8 Si16 O48,2.5566999999999998,61
26301,Mg4 Ni8 O16,0.0508999999999995,57
26302,Re8 Bi8 O40,2.9631,61
26303,Nb4 Zn4 Sn2 O16,1.9989999999999997,1
26304,Zn4 Cr6 O16,0.6479000000000001,186
26305,Ge4 W2 O12,2.2472000000000003,15
26306,Mg2 Ni8 O12,0.0,63