Index,Composition,bandgap,spgN
19006,Sr6 W4 O18,3.5566,167
19007,Sc2 Cr2 O8,0.0,63
19008,Zr4 Cr4 O16,0.5910000000000002,60
19009,Li4 Nb1 V3 O8,0.0,2
19010,Mn4 Cr4 O16,1.3321,14
19011,Li4 V2 Fe2 O10,1.8911000000000002,129
19012,Li4 Nb3 Fe5 O16,1.1016999999999997,1
19013,V8 S4 O32,1.8925,62
19014,Li12 B8 Sb4 O24,2.8223000000000003,14
19015,Ba4 La4 Br20,3.1517999999999997,62
19016,Li8 V4 P6 O24,0.20920000000000005,15
19017,Ba2 La2 Br10,2.7230000000000003,11
19018,Li4 Mn2 V1 Ni3 P6 O24,1.4053,1
19019,Li4 V2 Cr3 Fe3 O16,1.1795999999999998,8
19020,Li8 Al4 Co4 O16,1.6853999999999998,14
19021,Li18 Cr6 O24,0.0,3
19022,V12 P8 O32,1.7588999999999997,14
19023,Mn3 Co3 Cu2 O16,0.06909999999999994,8
19024,Li3 Mn1 Fe4 O8,0.12429999999999986,12
19025,Li19 Co4 O16,0.2900999999999999,6
19026,Li8 Mn8 B8 O24,2.9162,61
19027,Li12 Cr4 O16,0.6230999999999998,15
19028,Ti1 Co5 O12,0.0,12
19029,Li8 Cr8 O28,2.4686,2
19030,Li20 Fe4 O16,2.9148,14
19031,Li6 Fe3 Sb3 O16,0.05879999999999974,8
19032,Li4 V3 Cu3 Sb2 O16,0.0,1
19033,Li6 Cr2 P2 C2 O14,2.4991999999999996,4
19034,Li2 V1 Ni1 O4,1.7008999999999999,10
19035,Li2 V1 Ga3 O8,2.2332,1
19036,Mn3 Cu1 O8,0.0,166
19037,Sr8 La4 Cl28,4.3991,62
19038,Li8 Al4 Co4 O16,1.5688,14
19039,Li3 Mn1 V4 O12,1.1592000000000002,1
19040,Mn3 Sb1 P4 O16,0.0,6
19041,V4 Cr8 O24,0.0,60
19042,Li2 Ni1 P4 O12,3.2316999999999996,2
19043,Li4 Co2 C2 S2 O14,2.4992,11
19044,Mn3 Co3 Te2 O16,0.0,1
19045,Na4 Sn2 As2 C2 O14,0.0,11
19046,Ga8 W4 O24,3.1372,15
19047,Li4 Cr4 O14,2.4383999999999997,2
19048,Li6 Fe3 Co3 O16,0.0,1
19049,Mg4 Sc3 Si8 O24,0.0,3
19050,Nb24 Cd4 O64,1.5731,26
19051,Mn3 Ni1 O8,0.8148,166
19052,Li5 Mn3 Ni2 O10,0.3609,2
19053,Li3 Fe1 O1 F4,2.3849,8
19054,Ti1 Cr1 O4,0.0,119
19055,Na24 Sn8 O28,1.9928999999999997,14
19056,Fe10 O11 F9,0.0,1
19057,Li24 V8 P16 O64,2.6842,29
19058,Li4 V2 Si2 C2 O14,1.9614000000000003,11
19059,Li2 Mn2 P2 O8,3.4749,148
19060,Fe8 O6 F10,1.5662,1
19061,Mn12 Cr4 O32,0.8818,1
19062,Mn6 O8 F4,0.0,2
19063,Li2 Mn1 V3 O8,0.0,166
19064,Fe1 H1 O2,2.1185,156
19065,Li2 Cr1 W1 O6,0.5032000000000001,146
19066,Ti3 Te1 O8,3.1569999999999996,1
19067,Na10 Bi4 P2 C8 O32,0.4740000000000002,15
19068,Mn4 O2 F6,0.0,12
19069,Li2 Co1 Cu1 O4,0.0,119
19070,Mn12 O7 F17,0.0,1
19071,Li4 Mn8 B8 O24,0.5681999999999998,7
19072,Al12 H32 C10 Cl24 O12,5.515700000000001,2
19073,Li8 Ti6 Mn8 Fe4 O36,0.7115,26
19074,Li4 Mn3 Co2 Sn3 O16,0.0,8
19075,Li8 Ti6 Mn8 Co4 O36,0.6986999999999997,26
19076,Li6 Fe4 F18,3.9425999999999997,190
19077,Li4 V2 F12,2.1976999999999998,63
19078,Li4 Cr5 Sb1 O12,1.4181,12
19079,La4 Nb4 N4 O10,1.4661,8
19080,Na16 Sb8 C16 S4 O64,0.42920000000000025,1
19081,Li4 Nb1 Co3 O8,1.4030000000000002,1
19082,Na8 Sb4 C8 S2 O32,0.47319999999999984,22
19083,La8 Cu3 O16,0.0,1
19084,Ti8 N8 O4,0.36300000000000043,12
19085,Nb8 O16,0.0,61
19086,Ho4 In4 O12,2.5765,62
19087,Mn10 Fe2 O24,0.0,15
19088,Li24 Sb8 P16 O64,4.2233,14
19089,Li4 Ni4 B4 O12,3.2764999999999995,14
19090,Li4 Cr1 Te1 W2 O12,0.0,1
19091,Li6 Mn12 B12 O36,0.353,1
19092,Ba12 Y4 F36,6.227799999999999,62
19093,Fe10 O11 F9,0.07069999999999999,1
19094,Li2 V2 F8,2.4551,1
19095,Li6 Mn12 B12 O36,0.4929000000000001,1
19096,Li8 Fe4 F16,3.5929,62
19097,Na12 Sn4 O14,1.3569999999999998,15
19098,Li8 Fe8 F32,2.8958000000000004,31
19099,Na16 Fe8 O16,0.9472999999999999,60
19100,Mn7 Fe1 P12 O48,0.0,1
19101,Ba6 Y6 F30,6.5296,2
19102,Na10 Bi4 P2 C8 O32,0.5547999999999997,43
19103,Na12 V4 O12,0.5888,15
19104,Li8 Fe8 F32,3.0296,62
19105,Li4 Fe2 F8,3.8539,14
19106,Li3 Co3 Ni1 O8,0.0,12
19107,Li4 Mn4 P8 H8 O32,1.2826,14
19108,Fe8 O2 F14,0.8093999999999999,63
19109,Mn12 O10 F14,0.0,7
19110,Li6 Mn6 F18,3.5504,2
19111,Li8 Fe4 B8 O24,0.0,14
19112,Li2 Mn2 F6,3.2543,1
19113,Ni6 O2 F10,0.3077000000000001,12
19114,Fe6 O7 F5,0.0,1
19115,Li2 Fe8 B8 O24,1.173,7
19116,Li2 Fe2 P4 H10 O18,3.5691,2
19117,Li36 Bi20 O52,0.5211999999999999,14
19118,Na36 Cu8 O28,0.06529999999999991,29
19119,Mn4 H24 S16 O72,0.4319000000000002,56
19120,Li4 Cr4 P12 O36,2.6112999999999995,57
19121,Fe6 O7 F5,0.2483000000000002,5
19122,Na4 Ni4 O6,1.2372,14
19123,Sr1 Li1 La7 Fe3 O16,0.0,99
19124,Li2 Co2 Sn2 O8,0.3744000000000005,15
19125,Li7 Cr3 Co1 P6 O24,2.1361000000000003,1
19126,Li18 Fe4 O16,0.02479999999999999,1
19127,Ni6 O2 F10,0.4028999999999999,6
19128,Li10 Fe8 O16,1.0707,1
19129,Li8 Co8 O8 F16,0.27779999999999994,7
19130,Na12 B8 Sb4 S2 O32,0.0,203
19131,Li4 Mn8 B8 O24,0.2551000000000001,1
19132,Co6 O10 F2,0.0,10
19133,Fe10 O11 F9,0.0,1
19134,Fe10 O11 F9,0.0,1
19135,Li2 Fe6 O4 F12,1.8513,2
19136,Li4 Mn4 Si4 O16,1.0591,33
19137,Na8 Fe4 As2 C8 O32,0.0,70
19138,Li4 V3 Cr2 O10,1.0365999999999995,1
19139,Li4 Mn8 B8 O24,0.48550000000000004,1
19140,Mn12 O10 F14,0.0,1
19141,Li5 Mn10 B10 O30,0.10670000000000002,1
19142,Li4 Mn3 Cr2 O10,0.2145999999999999,1
19143,Co8 O4 F12,0.6197,14
19144,Li4 Cu2 Ni3 Sb3 O16,0.09059999999999979,1
19145,Mn8 O4 F12,0.0,63
19146,Fe10 O9 F11,1.0282000000000002,1
19147,Gd8 Nb8 N8 O20,1.7136,1
19148,Li3 Mn6 B6 O18,0.4797,1
19149,Li4 Mn4 P16 O48,0.9556,20
19150,Na8 Mn4 P2 C8 O32,0.0,70
19151,Li4 Co1 O1 F5,0.0,8
19152,Li4 Fe6 Ni2 O16,0.0,9
19153,O6 Sr2 Ho1 Re1,0.0,225
19154,Li4 Mn3 V1 O8,0.0,2
19155,Li8 Sb8 P16 O56,3.3847000000000005,14
19156,Y4 Nb8 N4 O20,2.4376999999999995,7
19157,Co8 O4 F12,0.0,12
19158,Co10 O5 F15,0.45430000000000004,1
19159,Li2 Cu4 P6 H4 O20,1.3990000000000005,2
19160,Li8 Mn4 Si16 O40,3.5734000000000004,19
19161,Li4 Co8 O4 F20,0.045499999999999985,7
19162,Mn12 O10 F14,0.01089999999999991,1
19163,Li5 Mn10 B10 O30,0.28990000000000005,1
19164,Li4 Mn2 Cu3 O10,0.0,2
19165,Ta4 Cr2 N2 O10,1.4359999999999995,31
19166,Mn6 O7 F5,0.0,1
19167,Li8 Mn12 B12 O36,0.0,8
19168,Li8 Fe12 O4 F24,2.5328999999999997,1
19169,Mn6 O7 F5,0.0,1
19170,Li4 Mn6 B6 O18,0.11070000000000002,1
19171,Li2 Co6 O4 F12,0.5433,2
19172,Li1 V1 F4,2.2211,1
19173,Li4 Mn8 B8 O24,0.31509999999999994,1
19174,Li4 Mn7 P6 O24,2.9061000000000003,8
19175,Li2 Mn4 P4 O16,0.42890000000000006,7
19176,Fe10 O9 F11,0.9217000000000002,1
19177,Li2 Mn2 P4 O14,0.46160000000000023,2
19178,Li8 Fe8 P16 O56,1.7431999999999999,1
19179,Li4 Mn6 B6 O18,0.13670000000000004,1
19180,Li8 Mn12 B12 O36,0.0,1
19181,Li2 Mn4 B4 O12,0.4159999999999999,9
19182,Li11 V6 O5 F19,0.8712,1
19183,Fe8 O6 F10,1.4527,2
19184,Fe8 O6 F10,1.5869,8
19185,Mn8 O13 F3,0.0,1
19186,Li1 Ti1 V2 O6,1.3928000000000003,1
19187,Mn2 P10 O30,0.0,11
19188,Li2 Fe8 B8 O24,1.4043000000000003,1
19189,Li2 Mn3 Cr3 O12,0.0927,10
19190,Na12 V4 B8 P2 O32,0.0,203
19191,Li4 Mn8 B8 O24,0.0,2
19192,O12 S4 Cd4,3.3333,14
19193,Mn12 O14 F10,0.0,1
19194,Li4 Co4 O8,0.5174000000000003,2
19195,V2 O2 F2,2.5369,166
19196,Mn6 Si6 O20,1.2803999999999998,15
19197,Li4 Ni2 P8 O24,4.6334,9
19198,Li5 Fe5 Si7 O24,2.5976999999999997,1
19199,La2 Cu1 Ir1,0.0,225
19200,Cd4 H40 C12 N4 Cl12,4.1544,62
19201,Li5 Fe5 Si7 O24,2.3908,1
19202,Li8 Ni2 P12 O36,4.3492,15
19203,Li2 Y2 Mo4 O16,2.9730000000000003,2
19204,Ca6 Sn3 S12,0.8649000000000004,189
19205,H16 Rh1 N5 Cl6 O3,1.6753999999999998,155
19206,Ca4 Sn4 S12,0.7503000000000002,62
19207,Li8 Mn8 P8 O36,0.6033,62
19208,U4 Co4 Si4,0.0,62
19209,Li7 Zr1 O6,0.0,146
19210,Li4 Co2 P2 H2 O10,2.8023999999999996,2
19211,B2 O6 Ti2,0.0,167
19212,Zn1 Ga3,0.0,221
19213,Sr1 Mg3,0.0,139
19214,Sc1 Bi1 Pd2,0.0,225
19215,Rb3 Na1,0.0,139
19216,Rb1 Tl3,0.0,225
19217,Hf3 Bi1,0.0,139
19218,Mg1 Pt5,0.0,8
19219,Mg3 Cu1,0.0,44
19220,Pm3 Zn1,0.0,139
19221,Ac6 Er2,0.0,194
19222,Sn2 Br2 Cl2,1.1451,129
19223,Sc2 Cl2 O2,3.9227999999999996,129
19224,Mn4 Zn1 O8,0.0,166
19225,Mn8 Si10 O30,0.38829999999999965,2
19226,V4 Ni4 P8 O36,0.0,62
19227,Mn2 Nb4 Zn3 O16,0.9178000000000002,1
19228,Al10 Co6 O24,0.43950000000000067,12
19229,Mg4 Fe2 Sb2 O12,1.9207,11
19230,Ca1 Ni2 P4 O14,0.05469999999999997,1
19231,Ca2 W2 F10,3.4857,1
19232,Ca2 Ni2 F8,4.0193,8
19233,Mg4 Mn2 Sb2 O12,1.0465999999999998,11
19234,Mg2 Mn4 S8,0.0,141
19235,Mg2 Fe2 P2 O10,1.9022999999999999,1
19236,V2 Zn2 F8,1.2474999999999998,2
19237,V4 Zn6 O14,1.0960999999999999,36
19238,Ca12 Sn8 Ge12 O48,0.0,230
19239,Mg8 Cu16 O32,0.0,8
19240,Mn16 Zn8 O32,0.0,8
19241,Zn2 Cr2 Si4 O12,1.8339000000000003,15
19242,Ca4 Ti4 As4 O20,1.8910999999999998,1
19243,Zn4 Cu2 Ir2 O12,0.0,14
19244,Mg4 Mn4 As4 O20,1.3572,19
19245,Zn3 Fe4 Mo6 O24,1.2207,2
19246,Ca3 Bi1 As1,0.0,221
19247,Ca1 Mg7,0.0,187
19248,Pr2 Sb2 Te2,0.0,129
19249,Na1 Li1 Mg6,0.0,38
19250,Mg6 Ga1 Sn1,0.0,38
19251,Y1 Mg6 Cd1,0.0,38
19252,Sr1 Ca1 Mg6,0.0,38
19253,Sr1 Mg15,0.0,187
19254,Mg15 Ni1,0.0,187
19255,La8 Al12 O30,4.464499999999999,1
19256,Y1 B2 Pd2 C1,0.0,139
19257,Pr2 Al1 N1 O3,1.6148999999999996,107
19258,Yb2 Cl6,0.0,12
19259,Te4 Mo3 S2,0.0,187
19260,Te2 Mo2 W1 S4,0.0,156
19261,Te2 Mo2 W1 S4,0.0,156
19262,Te2 Mo2 W1 S4,0.0,156
19263,Te4 Mo3 S2,0.1554000000000002,156
19264,Te2 Mo3 S4,0.0,187
19265,Te2 Mo3 S4,0.0,156
19266,Mg14 Ga1 Sb1,0.0,38
19267,Li1 Mg14 Ti1,0.0,187
19268,Mg14 Sn1 Sb1,0.0,38
19269,Li1 Mg14 Sb1,0.0,38
19270,Te2 Mo2 W2 Se2 S4,0.0,156
19271,Te2 Mo3 W1 Se2 S4,0.0,156
19272,Te2 Mo2 W2 Se2 S4,0.0,156
19273,Te2 Mo2 W2 Se2 S4,0.0,156
19274,Te2 Mo3 W1 Se2 S4,0.0,156
19275,Te2 Mo2 W2 Se2 S4,0.0,156
19276,Te2 Mo3 W1 Se2 S4,0.12740000000000018,156
19277,Na1 Mg14 Zr1,0.0,187
19278,Mg14 Zn1 Sb1,0.0,38
19279,Mg14 Zn1 Cu1,0.0,187
19280,Mg14 Zn1 Cu1,0.0,38
19281,Ca1 Mg14 Ga1,0.0,187
19282,Y1 Mg14 Cu1,0.0,38
19283,Ca1 Y1 Mg14,0.0,38
19284,Na1 Ca1 Mg14,0.0,187
19285,Mg14 Cd1 Ni1,0.0,187
19286,Te2 W4 S6,0.0,156
19287,Te2 Mo2 W2 Se2 S4,0.0,156
19288,Te6 Mo2 W2 S2,0.0,156
19289,Te2 Mo2 W2 Se2 S4,0.20420000000000016,156
19290,Te2 Mo2 W2 Se2 S4,0.0,156
19291,Te6 Mo2 W2 S2,0.0045999999999999375,156
19292,Te2 Mo2 W2 Se2 S4,0.0,156
19293,Te2 Mo2 W2 Se2 S4,0.0,156
19294,Te6 Mo2 W2 S2,0.0,156
19295,Te2 Mo2 W2 Se2 S4,0.0,156
19296,Te2 Mo3 W1 Se2 S4,0.0,156
19297,Te4 Mo2 W2 Se4,0.0,156
19298,Mg6 Cd1 Fe1 O8,1.1327999999999996,123
19299,Na1 Mg6 Mn1 O8,0.0,123
19300,Ca1 Mg6 Fe1 O8,1.9143999999999997,123
19301,Mg14 Cr1 Cd1 O16,0.6962000000000002,47
19302,Na1 Y1 Mg14 O16,3.7525,47
19303,Mg30 Nb1 Co1 O32,0.0,123
19304,Mg30 Nb1 Co1 O32,0.31130000000000013,123
19305,Mg30 Ni1 Sn1 O32,1.6531000000000002,123
19306,Ca1 Mg30 Nb1 O32,0.3966000000000003,123
19307,Rb1 Mg30 Mn1 O32,1.9638,123
19308,Sn12 Bi4,0.0,225
19309,Mg3 Cd3,0.0,156
19310,Ca12 Mg4,0.0,225
19311,Rb1 Mg30 Ga1 O32,4.045,123
19312,Rb1 Mg30 Cr1 O32,3.2229,123
19313,Na1 Hf1 Mg30 O31,0.03560000000000052,25
19314,Na1 Hf1 Mg30 O31,0.09539999999999971,99
19315,Na1 Mg30 B1 O32,4.107900000000001,123
19316,Na1 Mg30 Si1 O32,0.4172000000000011,123
19317,Y2 Ti2 W4 O16,1.7108000000000003,2
19318,Mg2 Ti4 O10,2.6951,63
19319,Mg2 Cu2 Ge4 O12,0.0,15
19320,Ti4 Zn2 O10,2.8317,63
19321,Mg2 V6 P8 O28,2.0561,14
19322,Ca4 Ni8 P8 O36,0.0,6
19323,Mg4 Co4 Si16 O40,2.6466999999999996,130
19324,Zn4 Fe4 Si16 O40,3.3825000000000003,130
19325,Ti2 Bi2 P6 O24,0.22060000000000002,161
19326,Pr2 Mg2 Ti4 O12,0.0,31
19327,Mo4 P4 O20,0.8644000000000001,43
19328,Ca2 Mn4 P4 O20,0.0,43
19329,Ba1 Mg1 Fe4 O8,1.6564,162
19330,Pr2 Zn2 Bi4 O12,0.0,4
19331,Pr2 Mg2 Fe4 O12,0.0,31
19332,Ca2 Bi4 O8,1.593,160
19333,Bi4 O8,0.0,160
19334,Zn4 Sn8 P8 O32,2.5225,1
19335,Ca4 Sb8 P8 O36,2.2596999999999996,62
19336,Mg4 Sn8 P8 O32,2.6719,1
19337,Al4 Cr12 O24,1.1429,164
19338,Ca2 Sn6 P8 O28,2.5087,14
19339,Cr8 O16,0.0,62
19340,Cu8 Mo8 O32,0.16359999999999997,14
19341,Ba4 Ca4 W4 F28,3.9032999999999998,14
19342,Ba2 Y1 Co3 O8,0.0,123
19343,Sr2 Y1 Tl1 Co2 O7,0.0,123
19344,Ba2 Y1 Cr3 O7,0.007800000000000473,47
19345,Ca2 La2 Cr2 Ni2 O12,0.6463000000000001,7
19346,Mg1 Zr2,0.0,166
19347,In2 Te3,0.0,166
19348,Na4 V4 O10,0.14910000000000023,46
19349,Eu4 Ni4 O10,0.0,46
19350,Ba4 Sr4 Co3 Cu5 O24,0.0,1
19351,Sr28 Ca4 Ti32 O80,0.0,1
19352,La20 Sm12 Co28 Cu4 O80,0.04559999999999942,1
19353,La28 Sm4 Co20 Cu12 O80,0.0,1
19354,Ti2 Fe2 H2,0.0,51
19355,Na2 Ca2 H6,3.3097000000000003,161
19356,Ce2 Si7,0.0,65
19357,Si8,0.38900000000000023,12
19358,Sn2 H8,0.0,63
19359,Na4 Mn12 O24,0.6382000000000001,9
19360,Ce4 Se8,0.41800000000000015,29
19361,Er1 In1 Pt4,0.0,216
19362,U3 Ga3 Pd3,0.0,38
19363,Er2 Fe2 Ge4,0.0,63
19364,Al1 Cr1 Co2,0.0,225
19365,Y5 Mg1,0.0,189
19366,Mg4 Zn8,0.0,63
19367,Mg5 Ga1,0.0,187
19368,Mg6 Ga6,0.0,38
19369,Mg4 Ga8,0.0,63
19370,Mg3 Sb1,0.0,221
19371,Mg3 Zn1,0.0,187
19372,Mg6 Al2,0.0,139
19373,Ba2 Sr1 U1 O6,2.2288000000000006,225
19374,Sr4 Ca4 Fe2 Co6 O24,0.0,6
19375,Ba4 Sr28 Co16 Cu16 O80,0.0,1
19376,V2 H20 S4 N4 O16,1.7409,14
19377,V4 Bi8 O22,2.3996999999999997,7
19378,Tl3 Cu4 As8 Pb3 S20,0.0871000000000004,1
19379,Ti3 Cr2 Sn1 P6 O24,0.0,146
19380,V9 P16 O56,0.0014000000000000679,2
19381,Ti3 Cr2 Ni1 P6 O24,0.0,146
19382,Sr8 Cr8 O28,0.8635000000000002,2
19383,Ni2 Te2 O8,1.1469,74
19384,Li4 Fe8 P12 O48,0.0,13
19385,Li2 Fe4 P6 O24,0.0,15
19386,Zr8 Co2 P2,0.0,124
19387,U4 As8,0.0,62
19388,Hf8 Ni2 P2,0.0,124
19389,Yb4 Re8,0.0,194
19390,Fe4 P4 Se4,0.1758999999999995,14
19391,Hf8 Cu2 P2,0.0,124
19392,Ce2 V2 O8,0.2667999999999999,88
19393,K4 Se8 O2,1.0833,9
19394,Sr4 Os4 O12,0.0,62
19395,Ca1 Cu3 Ir4 O12,0.0,204
19396,Ti3 Cr3 B6 Ir6,0.0,38
19397,Rb2 Pr1 Cu1 Cl6,2.3116000000000003,225
19398,Rb2 Pr1 Cu1 Br6,2.108,225
19399,Rb2 Cu1 Bi1 I6,0.33110000000000017,225
19400,K2 Na1 Pr1 Cl6,4.6728,225
19401,K2 Ce1 Ag1 Br6,0.24,225
19402,K3 As1 Br6,2.9086999999999996,225
19403,K2 Na1 Ce1 I6,0.2599,225
19404,Na3 Ti1 F6,0.0,225
19405,K2 Tl1 As1 I6,0.8611,225
19406,K2 Li1 La1 Cl6,4.5201,225
19407,Cs1 Rb2 Pd1 F6,0.0,225
19408,Rb2 Sb1 Au1 Cl6,0.25049999999999994,225
19409,Rb2 Sc1 Au1 I6,1.0542,225
19410,K2 Na1 Tl1 Br6,0.8496,225
19411,K2 Hg1 Pd1 F6,0.0,225
19412,Cs2 Na1 Mo1 I6,1.0847,225
19413,K2 Hg1 As1 Br6,0.0,225
19414,K2 Cu1 As1 F6,0.9779,225
19415,K2 Ga1 Ag1 Cl6,0.9106000000000001,225
19416,Cs2 Y1 Hg1 I6,0.0,225
19417,Cs2 Hg1 Bi1 Cl6,0.0,225
19418,Cs3 Sb1 I6,2.4187000000000003,225
19419,Cs1 Rb2 Y1 Br6,3.7653,225
19420,Rb2 In1 Hg1 I6,0.0,225
19421,K1 Rb2 Ga1 Cl6,3.311,225
19422,Li3 Cu1 O1 F3,0.0,38
19423,Cu6 O8,0.0,225
19424,Ca2 Cu2 O4,0.0,65
19425,Ti1 Pd1,0.0,221
19426,Li4 Fe8 P12 O48,0.004400000000000001,7
19427,Rb4 Ag16 I20,1.4532,1
19428,Nd12 Al4 Si20 N40 O4,2.9190000000000005,32
19429,Li4 Mn2 Co2 O8,0.2448999999999999,2
19430,Li4 Mn2 Co2 O8,0.29910000000000014,11
19431,Li4 Mn2 Co2 O8,0.24009999999999998,11
19432,Li4 Mn2 Co2 O8,0.24109999999999987,15
19433,Li5 Co3 O8,0.0,10
19434,Li5 Mn2 Co1 O8,0.47230000000000016,2
19435,Li6 Mn3 Co1 O10,0.5570000000000004,8
19436,Li5 Mn2 Co1 O8,0.37239999999999984,2
19437,Li7 Co5 O12,0.0,2
19438,Li8 Mn2 Co4 O14,0.7908999999999997,2
19439,Li8 Mn2 Co4 O14,0.8007,1
19440,Li8 Mn2 Co4 O14,0.8063999999999996,2
19441,Li8 Mn2 Co4 O14,1.0722,2
19442,Li7 Mn2 Co3 O12,0.8043,2
19443,Li7 Mn2 Co3 O12,0.4174000000000002,2
19444,Li7 Mn2 Co3 O12,0.7761999999999998,2
19445,Li7 Mn2 Co3 O12,0.4509000000000003,2
19446,Li8 Mn2 Co4 O14,0.9017,1
19447,Li8 Mn2 Co4 O14,1.0060000000000002,1
19448,Li8 Mn2 Co4 O14,0.9765000000000001,1
19449,Li8 Mn2 Co4 O14,0.7719,1
19450,Li7 Mn2 Co3 O12,0.8967999999999998,1
19451,Li7 Mn2 Co3 O12,0.5327999999999999,1
19452,Li7 Mn2 Co3 O12,0.8387000000000002,1
19453,Li7 Mn2 Co3 O12,0.7655000000000003,1
19454,Li7 Mn2 Co3 O12,0.3719999999999999,1
19455,Li7 Mn2 Co3 O12,0.7964000000000002,1
19456,Li7 Mn2 Co3 O12,0.8146,1
19457,Li7 Mn2 Co3 O12,0.6661999999999999,1
19458,Li7 Mn2 Co3 O12,0.7896000000000001,1
19459,Li7 Mn5 O12,0.0,10
19460,Li7 Mn5 O12,0.0,12
19461,Li9 Co7 O16,0.6141999999999999,12
19462,Li9 Mn2 Co5 O16,0.4962,2
19463,Li9 Co7 O16,0.5377000000000001,2
19464,Li9 Co7 O16,0.0,2
19465,Li9 Co7 O16,0.5780000000000003,2
19466,Li9 Mn2 Co5 O16,0.6179000000000001,1
19467,Li9 Mn2 Co5 O16,0.5981000000000001,1
19468,Li9 Co7 O16,0.0,12
19469,Li9 Mn2 Co5 O16,0.47699999999999987,1
19470,Li9 Mn2 Co5 O16,0.6888000000000001,1
19471,Li9 Mn2 Co5 O16,0.6452999999999998,1
19472,Li9 Mn2 Co5 O16,0.6183000000000001,1
19473,Li9 Mn2 Co5 O16,0.5291999999999999,1
19474,Li9 Mn2 Co5 O16,0.6997,1
19475,Li9 Mn2 Co5 O16,0.7180999999999997,1
19476,Li9 Mn2 Co5 O16,0.5909,1
19477,Li9 Mn2 Co5 O16,0.6160999999999999,1
19478,Li9 Mn2 Co5 O16,0.8065000000000002,1
19479,Li9 Mn2 Co5 O16,0.6981999999999999,1
19480,Li9 Mn2 Co5 O16,0.7475,1
19481,Li9 Mn2 Co5 O16,0.4655,1
19482,Li9 Mn2 Co5 O16,0.5176000000000003,1
19483,Li9 Mn2 Co5 O16,0.8186999999999998,1
19484,Li9 Mn2 Co5 O16,0.8439999999999999,1
19485,Li9 Mn2 Co5 O16,0.7046000000000001,3
19486,Na2 Cu3 O4,0.0,71
19487,Mn1 V3 Co2 P6 O24,0.0030000000000001137,146
19488,Li4 V4 P4 O20,1.0062000000000002,62
19489,Mn12 O4 F32,0.0,1
19490,Li2 V2 Cr2 O8,0.9423000000000004,74
19491,Li2 V4 O4 F6,1.4400000000000002,15
19492,Li2 Ti2 Co2 O8,0.7023000000000001,74
19493,Li2 Nb2 P8 O24,0.18900000000000006,15
19494,Li2 Mn2 F8,2.2512999999999996,141
19495,Li4 Mn8 F28,1.8185,14
19496,Li8 Mn8 P16 O56,0.47060000000000013,1
19497,Li8 Fe8 P8 O32,3.3118999999999996,14
19498,Li6 Fe6 F18,3.2986,2
19499,Li1 Fe7 O7 F1,0.0,8
19500,Li2 Cu2 H2 S2 O10,0.5431999999999999,11
19501,Li1 Cu3 Si2 O6,1.5902000000000003,12
19502,Li3 V3 C6 O18,1.903,5
19503,Li1 Co3 Ni1 O8,0.16510000000000002,12
19504,Li18 Mn10 O24,1.3228000000000002,15
19505,Li6 V9 P8 O32,1.6734999999999998,2
19506,Li6 Fe1 Sn3 P6 O24,2.3890000000000002,1
19507,Li5 Fe6 P5 O24,1.3786999999999998,1
19508,Li10 Cr2 P8 O28,2.5498000000000003,2
19509,Li4 V3 Ni1 P4 O16,1.4599000000000002,6
19510,Li4 V3 Cu1 P4 O16,0.0968,6
19511,Li4 Ti3 Fe2 Co3 O16,0.45330000000000004,1
19512,Li4 Nb3 Fe3 Sn2 O16,0.2355999999999998,1
19513,Li4 Mn3 Nb1 O8,0.0,2
19514,Li4 Fe3 Te1 O8,1.1878000000000002,12
19515,Li3 Fe8 B8 O24,1.3917,1
19516,Li16 V8 O8 F24,1.6546999999999998,1
19517,Li4 V2 O4 F2,1.3258,1
19518,Li4 Mn2 F8,2.9608,64
19519,Li1 Fe2 O4,0.26060000000000016,2
19520,Ho4 Te2 O4,0.6068000000000007,194
19521,Fe18 O18 F18,0.0,6
19522,Fe18 O18 F18,0.0,6
19523,Fe18 O18 F18,0.0,6
19524,Fe10 O6 F14,0.7450000000000001,1
19525,Fe10 O4 F16,0.4636,4
19526,Fe6 O2 F10,1.1874999999999998,8
19527,Fe6 O5 F7,1.3376000000000001,5
19528,Fe10 O11 F9,0.0,1
19529,Li8 Cu8 C8 O28,0.12739999999999974,14
19530,Cu2 As2 O6,0.0,51
19531,Fe26 Ni4 O40,0.009799999999999365,8
19532,Sr4 Ca2 Mo2 O12,2.1620000000000004,25
19533,Rb8,0.0,1
19534,Mg1 Sc1 Cu3 Se4,1.1271,215
19535,La4 Cu2 O8,0.0,64
19536,Li4 C1 O4,4.2179,8
19537,Cs4 Sb4 P4 O16 F12,1.815,14
19538,Ge7 H18 O23,2.9825,1
19539,Ba1 Pr1 Co2 O6,0.0,25
19540,Cs4 U4 V4 O24,2.1054,14
19541,Ba1 In1 O3,0.0,221
19542,Cd1 Sn1,0.0,38
19543,Ce1 Er3,0.0,221
19544,Ce1 Ho3,0.0,221
19545,Ho2 Mg1 Ru1,0.0,225
19546,Gd1 Th3,0.0,221
19547,Lu3 Cd1,0.0,221
19548,Na3 Ge1,0.0,225
19549,Mg16 Al12 H1,0.0,8
19550,Mg16 Ti1 Al12,0.0,217
19551,Na1 Au3,0.0,139
19552,Na1 Ca2 Rh1,0.0,225
19553,Na1 Ca3,0.0,139
19554,Pd3 Rh1,0.0,139
19555,Sm1 Mg5,0.0,8
19556,Sr1 Cd3,0.0,225
19557,Zr2 Ni2 H2,0.0,63
19558,Rb8 O12,0.0,122
19559,Mn4 Bi6 O14,0.06380000000000052,36
19560,Cd4 I4 O16,0.0,62
19561,Th6 Br15,0.0,229
19562,La6 In2 Fe2 S14,0.4757000000000007,4
19563,Dy6 Ga2 Fe2 Se14,0.0,4
19564,Ba8 Cu1 Si16,0.0,1
19565,Y4 C4 O16,0.7335000000000002,19
19566,Mg2 Si2 H12 O12,5.4176,4
19567,Ag4 H8 C4 S8 N4,2.1967,122
19568,Yb4 Sb8 Se16,0.7680000000000007,62
19569,Mo20 Ru10,0.0,136
19570,Ca1 Mn28,0.0,217
19571,Ca2 Al4 Si6 O20,4.5351,9
19572,Ga12 Si20 P40 H144 C48 N16 Cl44,3.1282,14
19573,Pr6 Ge26 Pt8,0.0,9
19574,P14 H108 Ir4 C36 Cl2 F12,1.0304,2
19575,Fe4 As8 H72 C24 I12,0.03999999999999998,62
19576,Cs8 Tl4 Cl20 O4,1.8049,62
19577,Sn4 Mo30 S38,0.0,176
19578,Ca4 Cu4 As4 O20,0.26900000000000013,19
19579,Ca10 Si4 O20,0.48219999999999996,14
19580,Y12 Mn12 Sn24,0.0,55
19581,Dy4 Al34,0.0,63
19582,Zn89 Mo4 Au10,0.254,216
19583,Pu4 P8 H24 C4 O32,0.1019000000000001,14
19584,Co4 H64 C16 S16 N32 Cl8,0.4404999999999999,86
19585,La8 Se16 O48,0.07010000000000005,29
19586,Mg8 As4 O20,0.6945,58
19587,Rb8 S8 O32,0.10739999999999994,14
19588,Co10 P8 H24 O32 F4,2.7789,41
19589,Na4 Pr4 P8 H16 C4 O28,4.8036,14
19590,Na8 Sn4 Ge10 O34,0.0038000000000000256,3
19591,Ba2 Ti2 Mn4 Si4 O20,0.6052,11
19592,Y4 Ga6 Fe28,0.0,194
19593,Nd2 H20 S6 N6 O22,5.3269,2
19594,As4 H24 N8 F20,5.2102,34
19595,B8 O14 Hg2,1.7956999999999996,31
19596,Co12 P8 O36,0.0,14
19597,Dy12 Mn12 Sn24,0.0,55
19598,B80 H168 N16 O12,4.436,14
19599,Sb4 H24 N8 F20,4.9477,62
19600,Na12 Zn6 B18 P12 H6 O76,0.46079999999999993,173
19601,K4 Cr4 Cu2 P4 O28,0.06059999999999999,14