Index,Composition,bandgap,spgN
28760,Ba2 Nd2 Ni2 Sb2 O12,2.5993000000000004,7
28761,Al4 Be1 Cl2 Na8 O24 Si7,4.1385,81
28762,Li6 Cu2 P4 O16,0.0431,1
28763,I28 Cs2 Zr12,0.0,64
28764,Na1 Cu3 Te2,0.0,160
28765,V12 Zr12 C4,0.0,227
28766,Ru2 Sn4,0.0,140
28767,Cu2 P2 H12 N2 O10,0.0,31
28768,O14 Co9 Ba2,0.0,166
28769,Sm16 Zr16 O56,2.8528000000000002,12
28770,Bi20 Cl36 Hf6,0.0,173
28771,O24 P8 Fe2,0.0,15
28772,Fe4 O48 P16,0.010599999999999943,60
28773,Li3 Cr1 P8 O24,0.0,5
28774,O28 P8 Sb4,0.0,14
28775,Fe4 O28 P8,0.1263,14
28776,O24 P8 Cr2,0.2935,4
28777,Y2 Cl2,0.0,166
28778,S6 N4 As4 F24,2.2041,5
28779,Ba18 Nb4 N24,1.2610999999999999,2
28780,O2 Pd1 Ag2,0.02090000000000014,71
28781,O6 Al2 Bi2,2.977899999999999,161
28782,Fe4 S12 N8 Cl20,1.3504,14
28783,Yb4 Na4 C4 O12 F8,0.6712,62
28784,Na2 Si4 Cu2 H4 O13,0.18369999999999997,2
28785,Tm6 O9,4.1691,12
28786,Bi2 S8 N6 Cl8,2.0457,2
28787,H32 C6 N2 F14,7.3689,173
28788,Ag2 Pb2 Br2 O2,0.5365999999999997,129
28789,Ni3 Bi2 S2,0.0,166
28790,Na4 Sn4 C6 O12 F6,2.4736000000000002,2
28791,Na6 Fe4 Mo6 O24,0.6301999999999999,15
28792,Na2 Fe6 P6 O24,0.4312,15
28793,K12 V4 S8 O8,2.4361,14
28794,In8 W12 O48,4.2459,60
28795,Te6 W4 Se8 Cl16 O4,1.0027,9
28796,Cr1 B6 H16,0.9962000000000001,2
28797,Ba2 Al4 Si4,0.0,63
28798,Nd1 Ni2 Sb2,0.0,139
28799,Co4 H64 C16 N8 Cl16,0.8333999999999999,14
28800,Sm1 Ni2 Sb2,0.0,139
28801,O10 Cu4 La4,0.0,55
28802,Ho2 Al2 B28,0.0,74
28803,Tm8 Mn8 Sn14,0.0,139
28804,V10 Si6,0.0,193
28805,Ho1 B6,0.0,221
28806,K8 Hg4 Cl16,2.297,62
28807,Mn4 P12 H48 N4 O28,4.3019,14
28808,Cs4 Cr4 I12,0.22120000000000006,60
28809,Si12 O24,5.1530000000000005,58
28810,P4 H24 N4 O16,4.9267,19
28811,O6 Sr2 Y1 Sb1,3.5121999999999995,225
28812,O2 F2 Pd1 Ba2,0.0,139
28813,U2 I8,0.0665,15
28814,Ba2 Pr1 Cu3 O8,0.0,123
28815,H14 Cl2 O6,4.2299,1
28816,H12 Cl4 O20,4.7936000000000005,6
28817,Eu2 H6 O6,0.0,11
28818,Ba2 H8 O12,0.2549,5
28819,Na2 H18 O10,3.8286,1
28820,H20 Cl4 O24,3.4228,1
28821,Ca2 H32 O20,3.3662,1
28822,Ca2 H32 O20,3.5782999999999996,1
28823,Sr2 H8 O6,4.4464,1
28824,Li2 Ga1 Sb1,0.027200000000000557,225
28825,Cs1 H1,2.5693,221
28826,K6 Ti6 I18,0.0,173
28827,Ba4 W4 O16,2.6940999999999997,11
28828,Fe8 Mo16 N4,0.0,227
28829,Si8 Ag20 O26,0.49729999999999963,2
28830,Cs8,0.0,135
28831,Sn4 P12 O36,2.3452,2
28832,Li2 Sn4 P6 O20,3.7549,15
28833,Sr24 Ta8 O43,0.0,1
28834,Li14 Mn2 As8,0.0,1
28835,Li2 Mn1 Br4,1.4742000000000002,1
28836,Na3 Sm6 Cl18,0.0,143
28837,Sr1 U2 O6,0.0,71
28838,Gd4 Pb2 S8,1.2363999999999997,122
28839,Bi36 Au4 Br36,1.0151999999999997,14
28840,Sn8 Sb12 S26,0.6013999999999999,1
28841,Fe12 N6,0.0,1
28842,K5 As4,0.0,1
28843,Ba7 U7 O24,0.0,1
28844,Pu2 Si12 H108 C36 N6,0.0,159
28845,La4 Ti4 Al4 Pb4 O24,1.8576000000000006,51
28846,Sr2 Co2 O5,0.6818999999999997,1
28847,Ca2 La2 Mn2 Sn2 O12,0.7267000000000001,7
28848,Ta1 Ti9 Al3 Zn23 O48,1.6626000000000003,1
28849,Li12 Mn6 Sn18 O48,1.1584999999999992,36
28850,B2 H6 N2 F8,7.5583,2
28851,Na12 Al4 H40 C24 O68,3.2651000000000003,15
28852,V4 Bi8 O22,2.3001,7
28853,Al2 H8 Se4 O16,0.0,14
28854,K2 Li2 H8 S4 N4 O12,5.3355999999999995,4
28855,Li12 Fe12 P12 O48,3.5691000000000006,14
28856,Ba3 La7 Mn1 Co9 O30,0.0,10
28857,Th8 V16 O56,2.6022,58
28858,Li4 Co4 P8 O28,1.2293,14
28859,Li4 Co4 P20 O60,0.014900000000000024,14
28860,Li12 Co6 P16 O58,0.0,1
28861,Li5 Co9 P16 O56,0.6744999999999999,1
28862,Li2 Mo4 P6 O26,2.7289000000000003,15
28863,Al16 Co8 O32,0.0,160
28864,Mn20 Cu10 O40,0.0,8
28865,Ca2 Dy2 Mn2 Sn2 O12,0.9459,7
28866,Ba2 P4 H8 O16,4.793,2
28867,Re12 H24 Pb6 C4 S4 N8 O52,2.3448,113
28868,V16 O32,0.9538000000000002,1
28869,H64 C16 S16 N32 Cl16,3.6188000000000002,61
28870,K6 Na2 P8 H8 O28,4.540500000000001,15
28871,Cd4 H16 S8 O20,3.117,14
28872,Tl12 Sn4 Se16,0.0,14
28873,Sr4 H12 C12 O28,2.8362,14
28874,Ca8 Y4 Al14 Cr4 Si2 O48,0.47799999999999976,1
28875,Fe4 H48 N12 F24,4.1708,19
28876,Na4 Sb4 O12,1.7037000000000004,52
28877,Zr2 U8 O20,0.0,1
28878,La1 Bi5 O9,1.4817999999999998,8
28879,Yb2 Ti2 O6,3.5820000000000003,148
28880,Bi4 O4 F4,3.0513999999999997,62
28881,Nb3 O7 F1,1.4918,65
28882,Li2 Zr2 P2 C2 O14,4.1552,4
28883,Ba2 Nb8 O11,0.0,139
28884,Ti4 O4 F8,3.8973999999999998,4
28885,Na6 Sn2 P2 C2 O14,2.8306000000000004,11
28886,Li2 Hf2 P2 C2 O14,4.8514,4
28887,Ho2 Cu1 O4,0.0,139
28888,Na1 Ti2 O3,0.0,164
28889,Na4 Cu2 O4,0.0,36
28890,Er2 Bi2 O6,2.4634000000000005,148
28891,Nb4 Pb4 O14,0.9375999999999998,227
28892,Ti8 O16,2.2943,62
28893,Al4 O6,4.1705000000000005,5
28894,Cs4 Np2 O6,0.03259999999999952,36
28895,Li2 Ti2 O4,0.0,186
28896,Ti6 N4 O6,1.7108000000000003,36
28897,Cs8 Ba4 O8,1.4555,60
28898,Li10 B2 O8,5.184900000000001,59
28899,Cu2 Bi2 P4 O16,0.0,11
28900,Zr4 O8,4.2234,12
28901,Zr2 Se2 O2,0.5998000000000001,129
28902,Li3 Cu4 Sn1 O8,0.0,12
28903,Ag2 Br2 O8,0.8743000000000001,88
28904,Li10 Sb2 S8,1.3595000000000002,36
28905,Ru4 Sb4,0.0,62
28906,Cu2 Te2 P4 O16,0.0,11
28907,Li1 Sb1 S2,0.0,123
28908,Ce2 Zr12 O28,2.152,25
28909,La2 Nb6 O18,1.6302999999999999,1
28910,Li4 Si8 Bi12 O36,3.0679000000000003,14
28911,Li2 Sn2 P8 O24,0.056599999999999984,1
28912,Sb2 P8 O24,0.0,15
28913,Li12 Sn12 P12 O48,3.5738000000000003,33
28914,H24 C8 N16 O4,4.5934,14
28915,Y6 O5 F8,4.9225,5
28916,Si2 S4,3.2912,122
28917,Sb2 N2 O2,0.0,12
28918,Nb4 H56 C16 N4 O56,3.1805,14
28919,Li6 Sb6 P8 O32,3.2319999999999998,4
28920,Sb20 O28 F4,3.1066,14
28921,Bi20 O28 F4,2.5465999999999998,73
28922,Li8 Cu10 F34,0.10029999999999983,2
28923,Li12 Cu4 F24,0.8733,1
28924,Hf5 N5 O2,0.0,8
28925,Li8 Fe4 B4 O16,2.3149,62
28926,Li4 Mn6 Cr2 O16,0.0,186
28927,Ga4 Ni2 O8,1.4346,160
28928,Li4 V2 Si8 O22,2.2167000000000003,15
28929,P8 W2 O26,1.9875,1
28930,Li5 Mn2 Fe3 P6 O24,2.1700999999999997,1
28931,Li4 Mn1 V1 W2 O12,0.7945000000000002,1
28932,Co5 O8,0.0,216
28933,Cu2 Ni11 O13,0.0,71
28934,Li4 Cr3 Ni3 W2 O16,0.2578999999999998,8
28935,Fe4 Co2 P6 O24,0.051899999999999835,167
28936,Li6 V6 P16 O58,0.2985,1
28937,Li6 V6 P16 O58,0.3427,1
28938,Li8 Fe4 C8 O24,3.4179,14
28939,Cr1 Fe3 Co2 P6 O24,0.0,146
28940,Li6 Ni5 O10,0.0,2
28941,V3 Fe1 Sb2 P6 O24,0.0,146
28942,Li4 Mn6 P8 O32,0.0,1
28943,Li2 Fe2 P6 O18,3.5443,9
28944,Li4 Fe2 P8 O24,4.245900000000001,125
28945,Li2 Fe2 P6 O18,3.7531,2
28946,Li2 Fe10 P6 O26,2.7297000000000002,2
28947,Li2 Fe3 P9 O28,2.6415,2
28948,Li8 V4 Fe10 O24,0.9009,4
28949,Li3 Ti2 Fe3 O10,1.6441999999999997,2
28950,Li15 V3 P6 O24 F6,2.4688,1
28951,Li2 Fe2 Si2 O8,2.8989,9
28952,Li8 Ti4 Ni10 O24,0.2096,4
28953,Li4 Fe16 P12 O48,3.1315999999999997,62
28954,Li7 Cr2 O8,0.5022,1
28955,Li4 Mn8 F20,3.0017,14
28956,Li8 Ti4 Ni6 O20,0.02389999999999981,2
28957,V2 Fe3 P6 W1 O24,0.0,146
28958,Li6 V6 P16 O58,0.6168,1
28959,Li8 V6 P16 O58,1.0671,1
28960,Li6 V6 P16 O58,0.6566,5
28961,Fe6 O6 F6,1.8912,6
28962,Co4 O1 F11,0.6344,1
28963,Li1 P2 W1 O8,2.4939999999999998,12
28964,Li4 P16 W4 O48,3.5984999999999996,14
28965,Mn1 Cd1 O2,0.0,123
28966,Li4 P8 W4 O28,3.5039999999999996,14
28967,Li6 V6 P8 O32,1.8697,2
28968,Li2 V8 P6 O24,2.1191999999999993,122
28969,Li1 V2 C4 O12,0.7772000000000001,5
28970,Li2 V3 C6 O18,0.7005999999999999,2
28971,Li2 Co4 C4 O14,1.19,9
28972,Li2 Mn3 P9 O28,1.0598999999999998,2
28973,Li4 Fe6 O12,0.0,70
28974,Li16 Cr8 P8 O32 F8,2.3471999999999995,60
28975,Fe10 P6 O26,1.4787,2
28976,Li8 Mn8 F28,0.6111,4
28977,Li40 Fe8 H8 O32,2.3347999999999995,62
28978,La8 Ni4 O17,0.0,1
28979,Li4 V3 Ni3 Te2 O16,1.3096,1
28980,Li4 V2 O4 F2,0.9741,12
28981,Li1 Co7 O7 F1,0.0,156
28982,Li6 V6 P16 O58,0.9827,1
28983,Li6 V6 P16 O58,0.892,1
28984,Na12 Co2 O8,0.8425999999999998,137
28985,Co4 O1 F11,0.5226999999999999,1
28986,Li4 Fe3 Co3 Ni2 O16,0.0,8
28987,Li4 Fe8 B8 O24,1.56,1
28988,Li4 Fe8 B8 O24,1.6712,1
28989,Li4 Fe8 B8 O24,1.7538999999999998,1
28990,Li6 V2 O6 F2,1.9940999999999998,2
28991,Li12 V4 O12 F4,1.9893999999999998,15
28992,Li3 Mn2 C4 O12,0.5701999999999999,1
28993,Li1 V1 Te3 O12,1.3811000000000004,1
28994,Li6 V6 P16 O58,0.4419,1
28995,Li6 V6 P16 O58,0.9759,1
28996,Li14 Fe2 O10 F2,0.2246,1
28997,Mn8 O4 F12,0.9986999999999999,62
28998,Li14 V9 P16 O56,2.6485999999999996,2
28999,Li2 Sn2 P8 O24,0.0,15
29000,Li2 V1 C2 O6,2.4204,148
29001,Li5 V5 O9 F1,1.0942999999999996,1
29002,V8 O4 F20,1.5209,1
29003,La2 Al24 O38,0.0,9
29004,Li4 Ti1 Cr3 O8,0.0,166
29005,Li4 V5 O9 F1,1.4687000000000006,1
29006,Li2 Mn2 P2 O8,3.6121999999999996,1
29007,Li2 Cr2 Si2 O8,3.1106999999999996,74
29008,Mn4 F14,0.21229999999999993,15
29009,Li8 Cu2 Si4 O14,0.022299999999999986,9
29010,Li6 V6 P16 O58,0.29399999999999993,1
29011,Zr12 Nb4 O34,2.7757,1
29012,Ba1 Ca1 I4,3.2691,1
29013,Ag7 Sb9 O25,0.3775000000000004,160
29014,Li20 Fe4 C16 O48,1.9253,14
29015,Li20 V4 C16 O48,2.7054,14
29016,Li6 V6 P16 O58,0.5936,1
29017,Li6 V6 P16 O58,0.9185000000000001,1
29018,Li2 Si8 Ni2 O20,1.4342,13
29019,Li4 V1 P2 O8,3.2091999999999996,2
29020,Li2 V4 O3 F8,1.0325000000000002,2
29021,Mn1 V1 P2 H2 O10,1.2374999999999998,2
29022,Li5 Mn1 O3 F2,1.2666,1
29023,Li1 Mn5 O7 F1,0.0,160
29024,Li8 Mn2 F14,2.1900000000000004,15
29025,V6 O6 F6,1.5280999999999998,148
29026,Li4 Cr1 Ni3 P4 O16,1.5358999999999998,6
29027,Li12 V4 Si8 O28,2.1313,62
29028,Li4 Mn3 Fe3 Cu2 O16,0.0,8
29029,Li6 Mn1 Co1 P2 C2 O14,2.0074000000000005,6
29030,Li16 V8 Si8 O40,1.6081999999999996,14
29031,W10 O24 F2,0.0,51
29032,La8 Ti8 Cr4 O36,0.8291000000000004,4
29033,Li4 V4 F20,1.9139000000000002,33
29034,Li4 Fe4 Si4 O16,2.8325,7
29035,Li6 V4 F18,2.2881,1
29036,Zr11 V1 O24,1.7651000000000003,25
29037,V8 O16 F8,2.5328999999999997,14
29038,Li12 Cr1 Co3 P4 C4 O28,1.2044000000000001,6
29039,Li12 Ni4 P4 C4 O28,2.8919000000000006,1
29040,Li12 Fe4 P4 C4 O28,4.2436,14
29041,Li12 Fe4 P4 C4 O28,4.2364,14
29042,Li12 Ni4 P4 C4 O28,3.1008999999999998,1
29043,Li12 Fe4 P4 C4 O28,4.2013,14
29044,Li12 Co4 P4 C4 O28,2.297,1
29045,Li12 W4 O18,2.6091,15
29046,Li12 Co4 P4 C4 O28,2.2664999999999997,1
29047,Li4 Fe2 Si4 O12,3.2217,15
29048,Li5 Sb1 S4,1.3184999999999998,12
29049,Ba8 La8 O20,2.4337000000000004,62
29050,Li6 Sn2 B10 O20,3.761,2
29051,Li8 Bi4 B20 O40,3.5900999999999996,14
29052,Li11 Fe12 B12 O36,0.7972999999999999,1
29053,Li4 V4 S4 O16 F12,1.3764,7
29054,Li4 Ti2 Fe4 O10,1.3106,2
29055,Li3 Co4 Sn1 O8,0.1045000000000007,12
29056,Sc4 V4 O14,1.2135000000000002,227
29057,Mn4 Cr4 O16,1.3462,12
29058,Co2 Bi2 O8,0.5092000000000003,15
29059,Rb10 Fe2 O8,1.2902,59
29060,Li1 Mn3 Ni2 O8,0.0,44
29061,Li3 Fe1 Cu2 O6,0.07679999999999998,12
29062,Li6 V2 B8 O18,2.7324,11
29063,Li4 Cr2 O6,0.4491999999999998,9
29064,Ca2 Ni2 O6,1.1857000000000002,186
29065,Rb32 Fe8 O28,2.0105000000000004,14
29066,Rb40 Fe8 O32,1.8167,61
29067,Li2 Cr4 S6 O24,0.0,167
29068,Li6 V6 B4 O20,0.7279,14
29069,Li6 V6 B4 O20,1.0750000000000002,2
29070,Fe3 Co1 Ni2 P6 O24,0.0,146
29071,Li6 Cr18 O54,1.351,9
29072,Mn4 Tl4 O12,0.0,19
29073,Li8 Cr8 O28,2.4046000000000003,2
29074,Cr4 P2 O10,1.1185,2
29075,Li6 Be2 P2 C2 O14,5.353800000000001,4
29076,Na6 Tl2 P2 C2 O14,0.0,4
29077,Li4 Mn1 Nb2 W1 O12,1.2585,1
29078,Na12 Co4 As2 C8 O32,0.0,203
29079,Na6 Cr2 Si2 B2 O14,0.9356,11
29080,Li6 Ni2 P2 C2 O14,3.7963000000000005,4
29081,Li2 Mg1 Ni3 O8,0.8093999999999997,12
29082,Na4 Fe2 B2 P2 O14,0.4738,11
29083,Na4 Fe2 B2 As2 O14,0.6268,11
29084,Li3 Mn4 Sb1 O8,0.0,12
29085,Li4 Ni2 H16 C4 O20,4.4007,14
29086,Li3 Fe1 Ni3 O8,0.0,2
29087,Li4 Y3 Fe1 O8,2.6585,21
29088,Li4 Y3 Cr1 O8,3.2591,21
29089,Li2 V2 C2 S2 O14,2.1325,4
29090,Li1 V4 Cu1 O12,0.38710000000000006,5
29091,Li4 Mn6 Ni2 O16,1.0297,186
29092,Ba8 Tm12 O26,2.529,1
29093,Ni3 S6 O24,0.02510000000000001,146
29094,Li8 Mn4 B20 O40,1.2029,14
29095,Co3 S6 O24,0.0,146
29096,Li12 Ti4 Si24 O60,0.3088999999999995,64
29097,Li6 Cu2 P2 C2 O14,0.15739999999999998,4
29098,Np4 Se8 O24,0.02210000000000001,14
29099,Cu6 P8 O28,0.0,2
29100,Li2 Mg1 Cu2 Si4 O12,0.4535,2
29101,Na4 Cr2 C2 S2 O14,2.3779,11
29102,Li5 Mn5 Sb2 O12,0.0,5
29103,Li16 Cr4 O20,1.3709000000000002,2
29104,Mn5 Cu1 O12,0.0,12
29105,Li4 Nb1 Fe3 O8,2.5126,1
29106,Co1 Cu4 O8,0.0,12
29107,Mn2 O3 F1,0.0,38
29108,Li8 Ni4 P6 O24,0.0,2
29109,Na2 Li10 Mn4 P4 C4 O28,3.5368999999999997,1
29110,Na2 Li10 Mn4 P4 C4 O28,3.532,1
29111,Li2 Co2 Si4 O12,1.711,9
29112,Li12 Mn12 Si18 O54,2.6146000000000003,145
29113,V3 Fe3 P6 O24,0.06570000000000009,146
29114,Li2 Cr2 Fe2 O8,0.16900000000000004,74
29115,Mn1 Sb1 O4,0.0,119
29116,Ni1 Te1 O4,1.1891999999999996,10
29117,Ti1 Mn3 P6 O24,0.0,146
29118,Ba14 Y7 Cu20 O42,0.0,1
29119,Ba8 Nb6 O24,0.0,186
29120,Li1 La20 Cu9 O40,0.0,2
29121,Li2 La28 Cu12 O56,0.013199999999999434,2
29122,Li2 Fe1 O2,2.7177,12
29123,Li4 Fe3 Sn3 Te2 O16,1.3026,1
29124,V4 Ge8 O24,1.5087,14
29125,Li8 Mn12 F32,3.3773,88
29126,Mn3 Cr1 Cu2 P6 O24,0.0,146
29127,Li4 Nb2 Cr3 Cu3 O16,0.0,1
29128,Si12 Bi18 O52,0.0,147
29129,Cr2 Bi2 O8,0.0,141
29130,Li4 Mn3 Nb2 V3 O16,0.5272000000000001,1
29131,Li10 V12 Cu12 O48,0.0,4
29132,Na2 Co22 O34,0.0,8
29133,Y12 O18,3.5727,11
29134,Zr2 O4,3.4318,113
29135,Zr12 O24,3.5759999999999996,60
29136,Fe3 Cu2 Sb1 P6 O24,0.0,146
29137,Ti16 N16 O8,1.0514999999999999,1
29138,Li12 Sb4 S14,0.0,14
29139,Li8 Co8 P8 O32 F8,0.40810000000000013,1
29140,Sm4 Tm4 O12,4.6315,62
29141,Li4 Fe6 F16,3.0159000000000002,3
29142,Mn8 O12 F4,0.0,5
29143,Ba24 Y4 I60,2.955,15
29144,Ba8 Li32 Ni8 O32,2.6892999999999994,14
29145,Nb1 Fe3 Cu2 P6 O24,0.0,146
29146,Li12 V12 Co8 O48,1.2374,14
29147,Li1 V2 P4 H2 O16,0.9558000000000002,1
29148,Mn8 O4 F12,0.4899,12
29149,Li4 Fe4 F12,3.1206,15
29150,Li6 V2 F12,2.4757000000000002,148
29151,Mn2 P4 W2 O16,2.2835,11
29152,Li2 V8 O10 F14,1.2058,1
29153,Mn12 O10 F14,0.1584000000000001,1
29154,Li2 Fe2 F8,3.8649,1
29155,Li8 Mn4 F16,4.059699999999999,14
29156,Ga12 N4 O12,1.0145,1
29157,S3 Cu4 Cs1,0.0,123
29158,Li4 Mn2 F8,3.9058,227
29159,Li8 Mn8 F24,3.8372,62
29160,Na4 Fe2 O6,0.0494,36
29161,Ni16 P12 O48,0.0,58
29162,Li20 Mn8 P12 O48,4.0627,4
29163,Na8 Cu4 C8 S2 O32,0.007199999999999984,70
29164,Mn6 O10 F2,0.0,12
29165,Li6 Mn2 V2 P6 O24,0.38480000000000025,9
29166,Li2 V4 P8 H4 O32,0.9866999999999999,4
29167,Li4 Co2 Ni3 O10,0.0,2
29168,Li2 V4 P8 H4 O32,1.0822999999999998,1
29169,Li4 Mn6 B6 O18,0.022199999999999998,2
29170,Li8 Fe1 O5 F1,2.7133000000000003,1
29171,Li1 V1 P4 H4 O14,2.1292,2
29172,Li8 Fe4 O8 F4,1.6583999999999999,62
29173,Li2 Mn2 Si2 O8,0.0,63
29174,Li3 V6 P12 H6 O48,1.1173,1
29175,Li4 Mn6 B6 O18,0.06259999999999999,2
29176,Mn6 O10 F2,0.0,38
29177,Li4 Mn6 B6 O18,0.0,2
29178,Li4 Mn4 P4 O16,3.3834000000000004,33
29179,Li2 V4 P8 H4 O32,0.9447000000000001,4
29180,Li4 Mn6 B6 O18,0.11210000000000009,1
29181,Tb8 Ti4 O20,3.1632999999999996,62
29182,Li4 Ti2 Mn3 Cu3 O16,0.0,1
29183,Ni5 O6,0.0,12
29184,Li20 Mn2 Si4 O20,0.9875999999999998,1
29185,Li6 V6 P16 O58,0.7165,1
29186,Mn6 O10 F2,0.0,1
29187,Li4 Mn16 P12 O48,2.8075999999999994,62
29188,Mn6 O10 F2,0.0,8
29189,Li4 V3 Cr3 O12,1.1799,2
29190,Li12 P12 W8 O48,3.5045999999999995,14
29191,Li4 Fe2 P4 O14,3.9051,74
29192,Li4 Mn7 P6 O24,2.9772999999999996,1
29193,Ni1 H12 S2 N2 O10,4.5176,2
29194,Li6 V6 P16 O58,0.8892,1
29195,Li10 Mn8 P16 O56,0.20009999999999994,1
29196,Li2 V6 O2 F22,0.0,7
29197,Li3 V6 P12 H6 O48,0.9817,1
29198,Li18 V28 O70,0.4667999999999999,13
29199,Li8 Mn10 Cr4 O24,0.5724999999999998,4
29200,Li4 Mn6 B6 O18,0.14810000000000012,1
29201,Mn8 O8 F8,0.0,13
29202,Li4 Mn6 B6 O18,0.24350000000000005,1
29203,Li2 Fe2 P6 H16 O26,3.6786,2
29204,Li16 V2 O10 F2,2.0061,173
29205,Li4 Ni4 P12 O36,4.6493,62
29206,Li12 V4 F20,2.5098000000000003,62
29207,Li4 Mn2 P4 O16,0.8988,2
29208,Li6 Mn5 Co1 O12,0.0,2
29209,La6 Sc2 Be2 S14,0.9362999999999992,173
29210,Rb3,0.0,166
29211,Mn3 V1 Ni2 P6 O24,0.0,146
29212,Li6 Mn2 P4 O18,0.0,1
29213,Yb2 Mg6,0.0,194
29214,Lu2 Co2 Ge4,0.0,63
29215,Ho6 Mg2,0.0,194
29216,Ru2 Rh6,0.0,194
29217,Rb2,0.0,194
29218,Rb2,0.0,63
29219,Li3 Al1,0.0,139
29220,Mg2 Tl6,0.0,194
29221,Te1 Pd3,0.0,139
29222,Yb10 Sn6,0.0,193
29223,Th2 Zn1 Tc1,0.0,225
29224,Mg1 Hg5,0.0,155
29225,Tb1 Sc1,0.0,187
29226,Ac6 Nd2,0.0,194
29227,Li6 P1 S5 Br1,2.1276,216
29228,H24 Pb4 C4 I12 N4,1.6393,1
29229,Pb2 Br2 Cl2,3.0727,129
29230,H24 Pb4 C4 I12 N4,1.7574999999999998,62
29231,Al2 Fe4 O8,0.0,166
29232,Mn4 Zn1 S8,0.0,166
29233,Al10 Fe6 O24,2.0271999999999997,12
29234,Mo2 F10,2.0994,1
29235,Mg4 V4 F20,2.4842,14
29236,Ca12 Si12 Ni8 O48,0.07799999999999985,230
29237,Ca4 Ta2 Ag2 O12,0.5219000000000003,11
29238,Mg4 Mo2 W2 O12,2.4005,14
29239,Mg8 V16 O32,1.5331000000000001,8
29240,Zn2 Cu4 O8,0.0,2
29241,Mg8 Ni16 O32,0.0,8
29242,V2 Zn2 P4 O14,1.279,2
29243,Mg4 Cr4 Ni4 P8 O36,0.44110000000000005,1
29244,Mg4 Mn8 O16,1.0341999999999998,14
29245,Cs1 B1 Pb1 I2 F4,2.6219,1
29246,Nd1 B12,0.0,225
29247,Li4 Ti8 P8 O36,0.042500000000000426,62
29248,Mg3 Ga1,0.0,25
29249,In2 Se3,0.15280000000000005,164
29250,In2 Cu2,0.0,63
29251,La2 Sb2 Te2,0.0,129
29252,Ca2 Al4 Si2 O12,4.602400000000001,9
29253,Li1 Mg6 Ga1,0.0,38
29254,Mg6 Zn1 Cd1,0.0,38
29255,K6 V4 P6 O24,1.7942000000000002,15
29256,Ti1 Ga5 Ni1,0.0,123
29257,Mg14 Cd1 Sb1,0.0,187
29258,Mg14 Sn1 Bi1,0.0,187
29259,Na1 Li1 Mg14,0.0,38
29260,Te4 Mo3 W1 Se4,0.0,156
29261,Y1 Mg14 Cd1,0.0,187
29262,Mg14 Al1 Bi1,0.0,187
29263,Te4 Mo3 W1 Se4,0.6334,156
29264,Te4 Mo2 W2 Se4,0.03880000000000017,156
29265,Te6 Mo2 W2 Se2,0.0005999999999999339,156
29266,Te2 W4 Se4 S2,0.0,156
29267,Te2 W4 Se4 S2,0.0,156
29268,Te2 W4 Se4 S2,0.0,156
29269,Te2 W4 Se4 S2,0.0,156
29270,Te4 Mo2 W2 Se4,0.05779999999999941,156
29271,Te2 W4 Se4 S2,0.0,156
29272,Te4 Mo2 W2 Se4,0.3958999999999997,156
29273,Te6 Mo2 W2 Se2,0.006299999999999972,156
29274,Te4 Mo2 W2 Se4,0.11109999999999998,156
29275,Te4 Mo2 W2 Se4,0.06750000000000034,156
29276,Te6 Mo2 W2 Se2,0.016000000000000014,156
29277,Te4 Mo2 W2 Se4,0.06909999999999972,156
29278,Te4 Mo2 W2 Se4,0.0658000000000003,156
29279,Ca4 Si4 N8,2.1951,64
29280,Te6 Mo2 W2 Se2,0.005799999999999805,156
29281,Te4 Mo2 W2 Se4,0.027900000000000258,156
29282,Te4 Mo2 W2 Se4,0.07419999999999982,156
29283,Te6 Mo2 W2 Se2,0.0051000000000001044,156
29284,Te4 Mo2 W2 Se4,1.7938,156
29285,Te4 Mo2 W2 Se4,0.15009999999999968,156
29286,Te4 Mo3 W1 Se4,0.06709999999999994,156
29287,Te6 Mo2 W2 Se2,0.01750000000000007,156
29288,Te4 Mo2 W2 Se4,0.0882000000000005,156
29289,Mg6 Co1 Ni1 O8,1.7108999999999996,123
29290,Mg14 Cr1 Cu1 O16,0.0,123
29291,Ca1 Mg14 Cu1 O16,0.0,123
29292,Mg30 Fe1 Sn1 O32,1.8605,123
29293,Mg30 Ti1 Co1 O32,0.48680000000000057,123
29294,K1 Mg30 Fe1 O32,2.7184,123
29295,Y1 Mg30 Co1 O32,1.1467999999999998,123
29296,Mg30 Al1 Zn1 O32,0.3565999999999985,123
29297,Mg30 Mn1 Al1 O32,0.0,123
29298,Sr1 Mg30 Cd1 O32,4.019,123
29299,Sr1 Mg30 Cr1 O32,1.5884,123
29300,Ca10 Mg2,0.0,8
29301,Mg5 Cd1,0.0,187
29302,Ce6 Mg6,0.0,8
29303,Na1 Mg30 Sb1 O32,2.4179999999999993,123
29304,Na1 Ce1 Mg30 O32,0.0,123
29305,K1 Mg30 Ga1 O32,4.314399999999999,123
29306,Zn6 Ni12 O24,0.0,1
29307,V12 Zn6 O24,1.3081,1
29308,Mg4 Fe8 P8 O32,3.1724999999999994,15
29309,V8 Zn4 P8 O36,1.6501000000000001,62
29310,Ca4 V8 Cu8 O32,0.21660000000000013,14
29311,Ca2 Bi4 O8,1.7862999999999998,74
29312,Sr4 Y2 Mn2 Cu4 O14,0.0,1
29313,V2 Zn2 Ge4 O12,0.0,15
29314,Ba6 Y3 Cu6 F33,0.8523999999999999,145
29315,Zn2 Mo1 W1 O6,1.6433,1
29316,Ba4 Zn2 Cu2 Sb4 F28,0.9026000000000001,1
29317,Sr4 Y2 Cu6 O14,0.0,1
29318,Sr2 Ca2 Sn2 P4 O16,3.5271999999999997,2
29319,Mn2 Zn2 P2 O10,1.0373,1
29320,V2 Zn2 Si2 O10,1.7752,1
29321,Ca2 Mo4 O8,1.3125999999999998,63
29322,Sr4 Ca1 Fe2 S2 O6,1.0941999999999994,115
29323,Zn6 Cr12 O24,1.1456,156
29324,Ce2 Sn2 Au2,0.0,194
29325,Mn1 Cu4 Sn1,0.0,216
29326,Eu1 Cu1 O3,0.0,221
29327,Ba1 Sr7 Co4 Cu4 O24,0.0,160
29328,Sr16 Ca16 Mn28 Fe4 O80,0.0,1
29329,Sr24 Ca8 Ti8 Mn24 O80,0.010499999999999954,1
29330,Ba1 Sr7 Co6 Cu2 O24,0.0,38
29331,Sr5 Ca3 Mn4 Fe4 O24,0.0,8
29332,Sr24 Ca8 Ti16 Mn16 O80,0.7831000000000001,1
29333,K2 Li2 S2,2.732,194
29334,Er2 Se4,0.3363999999999998,71
29335,K1 Na3 H4,2.9382,221
29336,Nd2 Co2 Sb4,0.0,129
29337,Mn2 Ga2 S5,0.0,164
29338,Ca2 Mn24 O48,0.0,7
29339,Ce8 Se16,0.4230000000000005,61
29340,La2 Mg6,0.0,194
29341,Sr8 Mg4,0.0,12
29342,Sr8 Mg4,0.0,12
29343,Mg6 Sn2,0.0,139
29344,Mg8 Ga4,0.0,12
29345,Mg6 Bi2,0.0,139
29346,Ce2 Mg6,0.0,194
29347,La3 Mg1,0.0,221
29348,Mg1 Zn1,0.0,123
29349,Mg1 Zn3,0.0,221
29350,Sr2 Mg2,0.0,51
29351,Ca6 Mg2,0.0,194
29352,Ta4 Fe2 B4,0.0,127
29353,Sr6 Ca2 Ti2 Mn6 O24,0.0,28
29354,Ni15 O16,0.0,166
29355,Zn10 Fe20 O40,1.0724,8
29356,V1 Mo1 O5,1.5779,1
29357,V2 Bi4 O11,2.4027000000000003,1