Index,Composition,bandgap,spgN
29976,Li4 Fe16 P12 O48,2.9119,6
29977,Mn6 O4 F8,0.0,2
29978,Li6 V6 P16 O58,1.1878,1
29979,Li8 V6 P16 O58,1.0163,1
29980,Fe8 O2 F14,1.5192,4
29981,Fe4 O4 F4,1.9222,26
29982,Li4 Ti3 Fe2 Co3 O16,0.1442000000000001,1
29983,Li4 Cr2 O8,2.8805,2
29984,Li2 V2 Ge2 O10,1.9325,67
29985,Li2 P4 W2 O14,3.4961,2
29986,Li3 Fe2 C4 O12,1.7107,1
29987,Li2 Cr3 C6 O18,0.0,2
29988,Li4 Co13 O28,0.46140000000000003,1
29989,Li4 V6 P8 O28,2.5200000000000005,2
29990,K8 Li10 Fe4 O16,0.013999999999999957,1
29991,Li2 Mn2 C4 O12,1.4156,1
29992,Li2 V4 C8 O24,0.8425,24
29993,Li2 V4 C8 O24,0.8400999999999998,9
29994,Li1 V2 C4 O12,0.6950000000000001,2
29995,Co8 H84 I28 N24 O12,0.06940000000000002,62
29996,V4 O7 F5,1.3889,1
29997,Li3 Co5 O1 F11,2.4028,1
29998,Na2 Mn4 O8,0.0,141
29999,Li6 V6 P16 O58,1.2409000000000001,1
30000,Na6 Ni4 O8,0.7828000000000002,63
30001,Li6 V6 P16 O58,0.7075,1
30002,Li6 V6 P16 O58,0.9064,1
30003,Li6 V6 P16 O58,0.9981,1
30004,Mn6 O4 F8,0.03600000000000003,14
30005,Li3 Fe1 O4,0.0,1
30006,Li6 Mn4 F14,3.4951000000000003,1
30007,Li1 V2 O1 F5,1.8389000000000002,1
30008,V2 O2 F6,2.7763,1
30009,V4 O4 F12,2.8799,14
30010,Li3 Mn5 O1 F11,2.4186,1
30011,Li4 Fe8 B8 O24,1.7324,1
30012,Li4 Fe8 B8 O24,1.6068999999999998,1
30013,Li4 Fe8 B8 O24,1.7922,1
30014,Fe12 O12 F12,0.7544999999999997,6
30015,Li2 V6 O10 F6,1.1471999999999998,9
30016,Li4 V4 O8 F4,2.4218,62
30017,Li5 Fe7 O3 F13,2.8756,1
30018,Li8 V6 P16 O58,0.8959999999999999,1
30019,Li8 V6 P16 O58,0.8057999999999998,1
30020,Li8 V6 P16 O58,0.3228,1
30021,Mn8 Fe8 O24,0.001700000000000479,1
30022,Li8 Fe8 C8 O28,3.2713,2
30023,Fe2 O2 F2,1.9539,59
30024,Li8 V4 F20,2.1785,7
30025,Li8 V6 P16 O58,0.8027,5
30026,Li8 V4 F20,2.3259,19
30027,Li8 V8 F40,1.9417,14
30028,Li12 V6 F24,1.3747,148
30029,Li1 V1 Te1 W2 O12,1.6739,1
30030,Mn6 O7 F5,0.23039999999999994,1
30031,Li6 Ti2 V6 O16,1.509,159
30032,Mn12 O2 F22,1.2638,8
30033,Li4 Co1 O1 F4,0.017400000000000304,139
30034,Na3 Li5 Mn5 O9,0.5596000000000001,1
30035,Mn10 O5 F15,0.0,38
30036,Na4 Mn4 O16,1.9123,14
30037,V3 O1 F11,1.6720000000000002,1
30038,Zn1 Ni9 O10,2.0625,2
30039,Li1 V6 O7 F5,1.5356999999999998,1
30040,Ti3 W3 O12,0.5586000000000002,3
30041,Li2 Ni2 P6 O18,3.8064,2
30042,Li4 V4 F24,3.3314,14
30043,Li4 La5 Ti6 Nb2 O26,0.0,65
30044,Li3 Mn3 O4 F4,0.7464,12
30045,Bi24 Br10 O31,1.4649000000000005,1
30046,Nb20 O50,2.1388000000000003,2
30047,V8 Cu16 H8 O40,0.0,62
30048,Li8 V6 P16 O58,0.4375,1
30049,Li8 V6 P16 O58,0.4515,1
30050,Li8 V4 O4 F12,2.3625000000000003,76
30051,Li4 Ni2 P4 O14,4.2423,2
30052,Li4 Fe4 P4 O16,3.3899,7
30053,V1 Cr1 P2 H2 O10,0.6234999999999999,2
30054,Li4 Co2 C4 O12,2.4529,1
30055,Li4 Co2 C4 O12,2.3682999999999996,1
30056,Zn1 Ni9 O10,2.0976,2
30057,Mn5 O1 F11,0.0,1
30058,Li6 Fe6 Si6 O24,2.6071,161
30059,Li12 Mn3 Fe1 P4 C4 O28,3.6464,6
30060,Li2 V18 O44,0.0,11
30061,Li6 Mn1 Ni1 P2 C2 O14,2.7338,6
30062,Li7 Ti7 Nb5 O30,2.1219,143
30063,Li5 Sb1 S1,0.5867,6
30064,Na2 Hf2 P2 C2 O14,4.577,4
30065,La1 W9 O28,0.0,183
30066,Li8 V4 F20,2.3638000000000003,62
30067,Ge2 W9 O27,0.0,12
30068,Li12 Fe4 P4 C4 O28,4.2981,14
30069,Li4 V4 Si4 O16,1.5717999999999996,20
30070,Li6 Mn4 C6 O18 F2,4.0815,9
30071,Li12 V1 Co3 P4 C4 O28,0.7799000000000005,6
30072,Li12 Co4 P4 C4 O28,2.3451,1
30073,Li3 Nb2 Fe3 O10,1.6023999999999998,1
30074,Mg4 I8 O24,3.3254,60
30075,Li4 Bi4 B8 O20,3.0802000000000005,14
30076,Li8 Bi4 O12,1.3006000000000002,15
30077,Ca6 Ta4 O16,4.5215000000000005,64
30078,Li2 V4 S4 O16 F12,1.1396000000000002,7
30079,Ca10 Ta8 O30,3.2814,165
30080,Cr4 In4 O12,1.4046000000000003,62
30081,Li4 Al4 V4 O16,1.5135999999999998,62
30082,Sc4 V4 O12,1.5053,62
30083,Li5 Fe5 Cu2 O12,0.17280000000000006,5
30084,Co8 O16,0.0,9
30085,Na2 Fe2 C2 S2 O14,1.7637,4
30086,Gd8 Ti4 O20,3.1628999999999996,14
30087,Li6 V6 B4 O20,1.2932000000000001,4
30088,Li10 Mn4 P6 O24,3.8729000000000005,1
30089,Mg4 Mn6 O16,0.7802000000000002,64
30090,Li24 Ti8 S24 O4,2.2271,14
30091,Li4 Mn12 O20,0.0,55
30092,Li12 Al4 Cr4 O20,1.9648999999999999,33
30093,Li16 Co8 P8 O32 F8,2.9606000000000003,60
30094,Li4 Mn28 O48,0.0,142
30095,Li4 Cr5 Sn3 O16,0.2054999999999998,8
30096,Li3 Cr3 Ni1 O8,0.3500000000000001,166
30097,Li6 Mn2 B4 O12,1.2378,2
30098,Li6 V3 Co3 O12,1.4373999999999998,1
30099,La12 Si6 O30,4.0614,15
30100,V12 P8 O32,1.9158999999999997,2
30101,Li12 Mn4 C8 S2 O32,4.0745000000000005,203
30102,Li6 Co8 B8 O24,0.44320000000000026,7
30103,Li6 Ni2 As2 C2 O14,3.3238999999999996,11
30104,Te3 W1 O12,1.6396000000000002,3
30105,Na10 Mn4 P2 C8 O32,0.005900000000000016,22
30106,Li5 V4 O8,0.8807999999999998,8
30107,K2 Li2 W6 O18,0.0,1
30108,Li8 V8 O8 F24,1.7361,19
30109,Li2 Ti1 Mn3 O8,0.0,166
30110,Ba6 Tl12 O24,0.0679000000000003,15
30111,Ba8 Sn6 O20,2.7237999999999998,64
30112,Li4 Si4 Bi4 O16,2.9523,60
30113,Ba8 La4 I28,2.8926999999999996,4
30114,Tm4 W6 O24,3.9047000000000005,15
30115,Li3 Nb1 Co4 O8,1.7009000000000003,12
30116,Lu8 W4 O24,2.8266000000000004,15
30117,Li4 Nb3 V5 O16,0.20040000000000013,8
30118,Li12 V4 B8 O24,2.8342,14
30119,Li6 Mg2 P2 C2 O14,5.4592,4
30120,Mn6 Co2 O16,0.05229999999999979,186
30121,Li4 Cr8 O26,1.4047,15
30122,Li1 Zn1 Fe4 O8,0.0,160
30123,Li4 V2 Co2 O8,1.3384,74
30124,Li8 Fe8 Si24 O60,2.7493,64
30125,Li9 Fe3 W7 O28,0.0,160
30126,Li4 Ti1 V3 O10,1.2386999999999997,115
30127,Na2 Li10 Mn4 P4 C4 O28,3.6214000000000004,4
30128,Na2 Li10 Mn4 P4 C4 O28,3.5754999999999995,7
30129,Na4 Li8 Mn4 P4 C4 O28,3.5254,1
30130,Bi38 O60,0.0,143
30131,Li4 Cu4 P4 O16,0.0,33
30132,Li4 V4 P8 H20 O36,2.2968,33
30133,Na4 Li8 Mn4 P4 C4 O28,3.4913,1
30134,V12 O29,0.5361,12
30135,V6 O2 F22,0.7974999999999999,2
30136,Na24 Fe8 O32,0.41080000000000005,61
30137,Li1 La8 Cu3 O16,0.0,1
30138,Li4 V4 Si24 O60,2.0867,64
30139,Li5 Fe8 B8 O24,1.4954,1
30140,Li8 V6 P16 O58,0.8914000000000001,1
30141,Cr3 Co1 P4 O16,0.6886000000000001,6
30142,Li11 V12 Cu12 O48,0.0,8
30143,Li4 Cr3 Cu3 W2 O16,0.0,8
30144,Li4 Ti2 Fe3 Sn3 O16,1.3977,1
30145,Li4 Mn1 W3 O12,1.9286000000000003,3
30146,Ti3 Mn2 Sb1 P6 O24,0.0343,146
30147,K16 O8,0.8928999999999999,137
30148,V3 Ni1 O8,0.6743999999999999,8
30149,Zr5 N5 O2,0.0,1
30150,Li12 Fe4 F20,3.4968,6
30151,Li8 Mg8 W12 O48,4.2023,7
30152,V5 O12,1.3306,5
30153,Li4 Mn3 Fe2 Sn3 O16,0.5412999999999997,1
30154,Li2 V4 O2 F10,1.8394999999999997,7
30155,Li4 Mn6 B6 O18,0.0605,1
30156,Mn6 O8 F4,0.10400000000000009,2
30157,Li16 Fe8 F32,3.6065,34
30158,Li4 Fe4 F16,3.6467,12
30159,Li4 V2 O4 F2,1.4806999999999997,11
30160,Li4 V2 Fe3 Sb3 O16,0.5435999999999996,1
30161,Li4 V2 O4 F2,1.0852,12
30162,Mn6 O10 F2,0.0,12
30163,Li10 Mn3 F16,3.3565,166
30164,Fe8 O2 F14,1.6444999999999999,4
30165,Li1 Mn2 Co2 O8,0.20630000000000015,12
30166,Li2 Fe4 F10,3.0917,63
30167,Mn6 O10 F2,0.0,12
30168,Li9 Fe9 B9 O27,2.6202000000000005,1
30169,Li4 Mn4 Co2 O12,0.5897000000000001,2
30170,Li6 Mn6 F18,3.7828999999999997,167
30171,Li3 Fe5 O1 F11,3.1350000000000002,1
30172,Ba6 B4 O12,3.1068999999999996,58
30173,Na10 V4 P2 C8 O32,0.008499999999999952,43
30174,Fe10 O6 F14,1.2049,5
30175,Li18 Cr4 H54 O42,3.8432,2
30176,V5 P6 W1 O24,0.0,146
30177,Ni4 I8 O24,2.8945000000000003,19
30178,Li10 Fe6 O16,0.0,1
30179,Li40 La8 O32,3.3999,137
30180,Na8 Cu24 O16,1.2689,61
30181,Na8 Cr16 O52,1.8189000000000002,14
30182,Li2 V4 P8 H4 O32,1.1044,1
30183,Na12 Fe2 O8,0.6261000000000001,137
30184,Li4 Mn6 B6 O18,0.23719999999999986,2
30185,Li4 Fe8 Si8 O28,2.0098,14
30186,Mn8 O4 F12,0.3097000000000001,1
30187,Li4 Mn6 B6 O18,0.2126999999999999,1
30188,Li2 V4 P8 H4 O32,1.0883,1
30189,Li6 Mn6 P18 O54,3.7802,1
30190,Mn6 O8 F4,0.0,2
30191,Li5 La4 Ti1 Nb7 O28,1.077,1
30192,Li6 V6 P16 O58,1.2102,1
30193,Li6 V3 Cr6 O18,1.3087,12
30194,Li2 Cr2 P6 H16 O26,2.5294,2
30195,V18 O44,0.0,6
30196,Li6 Mn9 Si6 O24,2.0446999999999997,1
30197,Ni8 P24 O72,0.022199999999999998,54
30198,Li10 Mn8 P16 O56,0.04239999999999999,1
30199,Li2 V4 P8 H4 O32,1.0907999999999998,1
30200,Mn10 O5 F15,0.0,38
30201,Na12 V4 As2 C8 O32,0.0,203
30202,Li9 Mn7 Cr12 O48,0.07250000000000001,1
30203,Li6 V6 P16 O58,1.1945999999999999,1
30204,Li8 V6 P16 O58,0.4561,1
30205,Na12 Cr4 B8 S2 O32,0.0,203
30206,Li8 V6 P16 O58,0.5469,1
30207,Na2 V20 O30,0.0,64
30208,Y1 Bi15 O24,1.2981999999999996,6
30209,Li10 Ni2 P6 O22,3.5263,2
30210,Li6 V6 P16 O58,0.741,1
30211,Sc2 Tc1 Ni1,0.0,225
30212,Sc2 Be1 Tc1,0.0,225
30213,Ho2 Cd1 Os1,0.0,225
30214,Li6 V6 P16 O58,0.9415,1
30215,Na2 Ni2 C2 S2 O14,0.07330000000000003,4
30216,Li18 Co18 P18 O72,2.8966,1
30217,Li4 Cu4 F16,0.0,8
30218,Rb4 Co2 S4,0.0,72
30219,Fe17 Pr2,0.0,166
30220,S2 V8 Zr18,0.0,194
30221,Cs8,0.0,223
30222,Be2 Na2 Sb2,0.8866,194
30223,Sn1 Pb1,0.0,187
30224,La1 Er3,0.0,139
30225,K1 Rh1 O3,0.0,221
30226,Tm2 Be1 Os1,0.0,225
30227,Tm1 Hf1 Ir2,0.0,225
30228,Tm6 Mg2,0.0,194
30229,Ac6 Pr2,0.0,194
30230,Ac6 La2,0.0,194
30231,Cs1 Rb2 Ga1 F6,5.539300000000001,225
30232,Ge4 H24 C4 I12 N4,0.9326999999999999,1
30233,Si2 Ni2,0.0,59
30234,Mg4 Mn8 P8 O32,3.1832000000000003,1
30235,Ca1 Cr4 S8,0.0,166
30236,Ca10 Nb8 Co4 O36,1.2839,7
30237,Ca1 Co2 P4 O14,0.49950000000000006,1
30238,Ca4 W4 O12,2.3161000000000005,2
30239,Mg2 Cr2 Si4 O12,2.1948999999999996,15
30240,Ca4 Ni4 As4 O20,0.4236,19
30241,V8 Zn8 Bi8 O40,2.6374000000000004,61
30242,Mg4 Cr4 Ge8 O24,0.8222000000000005,14
30243,Y4 Zn2 Se8,0.23950000000000005,227
30244,Ca1 Mn2 O4,1.2687999999999997,2
30245,Mg7 Zn1,0.0,187
30246,Mg7 Bi1,0.0,187
30247,Mg2 Te2,0.8062999999999994,194
30248,Sr1 Ca1 O2,3.3236,123
30249,Ca1 Ga1 Sn1 H1,0.21010000000000062,156
30250,Er2 Cu2 Sn2,0.0,194
30251,Ho2 Cu2 Sn2,0.0,194
30252,Ho2 Te4,0.0,129
30253,Ca4 Al8 Si4 O24,4.291799999999999,14
30254,Mo1 W1 Se2 S2,0.47550000000000014,156
30255,Dy1 In1 Co4,0.0,216
30256,Be5 Fe1,0.0,216
30257,Ti2 Cr1 Te4,0.0,12
30258,Ni3 Sb1,0.0,225
30259,Na1 Mg14 Cd1,0.0,38
30260,Na1 Mg14 Ga1,0.0,38
30261,Mo2 W2 Se4 S4,0.6276999999999999,164
30262,Mo2 W2 Se4 S4,0.6122999999999998,156
30263,Mo2 W2 Se4 S4,0.5579999999999998,156
30264,Mg14 Zn1 Bi1,0.0,187
30265,Li1 Y1 Mg14,0.0,38
30266,Na1 Mg14 Sn1,0.0,38
30267,Mo2 W2 Se4 S4,0.5540000000000003,164
30268,Te4 Mo3 W1 Se4,0.15359999999999996,156
30269,Te4 Mo3 W1 Se4,0.19730000000000025,156
30270,Te4 Mo3 W1 Se4,0.05379999999999985,156
30271,Li1 Mg6 Ga1 O8,2.4295,123
30272,Mg6 Mn1 V1 O8,0.7625000000000002,123
30273,Mg6 Mn1 V1 O8,0.3003999999999998,123
30274,Mg6 Mn1 Cu1 O8,0.0,123
30275,Na1 Mg14 Ti1 O16,0.0,123
30276,Ca1 Mg14 Cu1 O16,0.012399999999999523,47
30277,Sr1 Mg30 Co1 O32,2.0546999999999995,123
30278,K1 Mg30 Co1 O32,1.5404999999999998,123
30279,Sr1 Mg30 Cu1 O32,0.48740000000000006,123
30280,Y1 Mg30 Cu1 O32,1.0813999999999995,123
30281,Y1 Mg30 Co1 O32,1.2428000000000008,123
30282,Mg30 Ti1 Mn1 O32,0.0,123
30283,Mg30 Ti1 Mn1 O32,0.0,123
30284,Ca1 Mg30 Al1 O32,0.45890000000000164,123
30285,Mg30 Al1 V1 O32,0.41999999999999993,123
30286,Mg30 Al1 Zn1 O32,0.10770000000000124,123
30287,Mg30 Al1 V1 O32,0.11480000000000068,123
30288,Mg30 Mn1 Al1 O32,0.3788,123
30289,Sr1 Mg30 Cr1 O32,1.7014000000000005,123
30290,Mg3 Cd3,0.0,166
30291,Mg2 Cd4,0.0,194
30292,Mg4 Cd12,0.0,225
30293,Ca4 Mg8,0.0,12
30294,Na1 Mg30 Sb1 O32,2.9772000000000007,123
30295,Na1 Mg30 Bi1 O32,3.240099999999999,123
30296,Li1 Hf1 Mg30 O31,0.5047000000000006,25
30297,Mg4 Cr8 P8 O32,2.2474,1
30298,Mg4 Mn8 P8 O36,0.0,62
30299,Mg2 Bi8 O18,1.0166999999999997,2
30300,Ca8 Co8 Si16 O48,2.7877,61
30301,Ca4 Co4 Ni4 P8 O36,0.15260000000000007,1
30302,V4 Zn4 Ge8 O24,0.008100000000000218,14
30303,Ca4 Si16 Sn4 O40,3.2741999999999996,130
30304,Mg2 Fe6 P8 O28,3.2309,14
30305,Mg2 Ti2 Ni2 P6 O24,0.0,161
30306,Ca2 Pr2 Bi4 O12,0.0,31
30307,Zn4 Fe4 As4 O20,1.9486999999999999,1
30308,Mg2 Cr1 W1 O6,1.6677999999999997,1
30309,Zn2 Cu4 O8,0.0,88
30310,Ca4 V8 P8 O32,2.0147000000000004,15
30311,Sr1 Zr1 O3,3.2609000000000004,99
30312,U1 Ga3 Ni1,0.0,107
30313,Be3 N2,2.7645,160
30314,Cs2 Mn2 As2,0.0,129
30315,Pr2 Sn2 Au2,0.0,194
30316,Sr4 Ca4 Fe6 Co2 O24,0.0,6
30317,Sr20 Ca12 Ti4 Mn28 O80,0.0,1
30318,Sr16 Ca16 Mn32 O80,0.0,1
30319,Sr6 Ca2 Fe3 Co5 O24,0.0,3
30320,Er2 Si4,0.0,141
30321,Sr6 Ca2 Mn5 Fe3 O24,0.0,3
30322,Ce2 Al2 Au2,0.0,194
30323,Ti3 Se4,0.0,12
30324,Cr2 Co1 Se4,0.0,12
30325,Fe1 Rh2 Se4,0.0,12
30326,Ti2 Cu2 Ge2 As2,0.0,129
30327,Mn3 As3 Pd3,0.0,189
30328,La2 Mn1 Ni1 O6,1.1807999999999996,225
30329,Ce2 Al2 H4 Ir2,0.0,194
30330,Sm2 Co2 Sb4,0.0,129
30331,Ce4 Se8,0.4897999999999998,14
30332,Er2 Cu1 Ge6,0.0,38
30333,Ba1 Nd1 Co2 O5,0.0,47
30334,La6 Mg2,0.0,44
30335,La15 Mg3,0.0,155
30336,Y10 Mg2,0.0,38
30337,Mg10 Zn2,0.0,8
30338,Mg6 Zn6,0.0,38
30339,Li2 Mg4,0.0,164
30340,Li2 Mg4,0.0,187
30341,Mg4 Ga8,0.0,12
30342,Mg8 Ga4,0.0,63
30343,Mg4 Ga8,0.0,63
30344,Mg8 Ga4,0.0,63
30345,Ca5 Mg1,0.0,189
30346,Ca4 Mg12,0.0,225
30347,H24 Pb4 C4 N4 Cl12,2.7097,1
30348,Li2 Co4 S8,0.0,141
30349,Ca28 Mg4 Fe4 Co28 O80,0.0,1
30350,Mg18 Si10,0.09480000000000022,155
30351,Y4 B4 O12,4.7653,62
30352,V4 P8 H52 C4 N12 O44,2.7868,15
30353,V5 Mo5 O25,1.1594,1
30354,V4 Ge13 O36,0.9701,10
30355,Y20 Ta8 O50,2.9919000000000002,6
30356,V8 O12 F4,0.0,65
30357,Rb12 Fe4 O12,1.9876,14
30358,Sr4 Ni4 O12,0.0,62
30359,Ti11 O14,0.0,12
30360,Mn4 P10 O30,0.012399999999999967,7
30361,Na4 Co4 B4 O12,2.5614,15
30362,Zr4 Cr4 Si4,0.0,62
30363,Pr2 Pd10,0.0,150
30364,Sr4 F8,7.0120000000000005,62
30365,Mg1 B2 H8,5.7042,164
30366,Al4 Hg2 Se8,0.4013,227
30367,Tl1 Mo6 S8,0.0,148
30368,Mn7 Cd1 O12,0.0,204
30369,Cr10 Si6 C2,0.0,193
30370,In4 H4 O8,1.5505000000000004,205
30371,Tb10 Si6 C2,0.0,193
30372,Ce2 Ti4 O12,1.5329000000000002,15
30373,Sr4 Sc2 Fe2 As2 O6,0.0,129
30374,Bi4 Te2 Br2 O9,1.8921999999999999,25
30375,In8 Bi6 Pb2,0.0,140
30376,Mn4 V4 O12,0.3014999999999999,62
30377,Rb2 Ag1 Bi1 I6,0.8272999999999999,225
30378,K2 Li1 Sb1 F6,4.1086,225
30379,K2 Li1 Sm1 Cl6,4.9171,225
30380,K2 Rb1 Al1 F6,5.9458,225
30381,Cs1 Rb2 As1 F6,3.7555,225
30382,K2 Rb1 Sc1 Br6,3.2699,225
30383,Rb2 As1 Au1 I6,0.0,225
30384,K2 Sc1 Ag1 I6,2.0819,225
30385,K2 Ag1 Au1 F6,0.0,225
30386,Cs3 Pr1 Cl6,4.7154,225
30387,Cs3 As1 Cl6,3.3933,225
30388,Rb2 Sm1 Cu1 Cl6,2.361,225
30389,Cs3 Tl1 Br6,1.6915,225
30390,Rb2 Ce1 Cu1 Cl6,0.2607999999999997,225
30391,Cs2 Ce1 Cu1 I6,0.20599999999999996,225
30392,Eu1 Cs2 Au1 Cl6,0.0,225
30393,Cs2 Cu1 Au1 Cl6,0.0,225
30394,Rb2 Hg1 As1 I6,0.0,225
30395,K1 Rb2 Al1 Cl6,4.511,225
30396,Rb2 In1 Ga1 Br6,0.9127,225
30397,Rb2 Tl1 Sb1 I6,0.8739999999999999,225
30398,Ca3 Fe2 N4,0.0,1
30399,Zn2 Cr4 O14,2.4293,4
30400,Ba8 Cu6 Sn2 O18,0.0,223
30401,Cs2 Pd2 Cl6,0.0,225
30402,Ag2 Bi2 S4,0.37899999999999956,141
30403,P4 H48 Au2 C16 I2,3.0875000000000004,63
30404,Nb2 Fe2 Ni2 O8 F4,1.3968,6
30405,Sm4 B4 O12,4.6587,62
30406,Pr6 Zn4 As12,0.0,59
30407,Na4 Mo2 O8,4.2597000000000005,40
30408,Na8 Mg2 Al4 Si18 O48,4.805200000000001,4
30409,Li6 Mn4 O10,1.0312999999999999,12
30410,Li5 Mn2 Co1 O8,0.9524999999999997,12
30411,Li5 Mn2 Co1 O8,1.0164999999999997,12
30412,Li5 Co3 O8,0.0,12
30413,Li5 Mn2 Co1 O8,0.6144000000000003,2
30414,Li6 Mn4 O10,0.5871999999999997,2
30415,Li4 Mn3 Co1 O8,0.0,12
30416,Na6 Fe10 Si20 O60,0.0,1
30417,Mn6 O7 F5,0.17369999999999997,6
30418,Li2 V8 O2 F22,0.030200000000000005,1
30419,Li2 V2 P6 O18,2.9716,2
30420,Li2 Mn2 V2 P6 O24,1.0469,1
30421,Li1 Mn2 O4,0.9558,2
30422,Mn2 O2 F2,0.5498000000000001,2
30423,Li2 Co4 P4 O16,0.2541,7
30424,Li9 V8 F48,0.3765999999999998,1
30425,Li12 Fe6 P16 O58,0.025900000000000006,9
30426,Li10 Mn8 P16 O56,0.008499999999999952,1
30427,Li8 V6 P16 O58,0.8199,1
30428,Li8 V6 P16 O58,0.2943,1
30429,Li8 V6 P16 O58,0.5888,1
30430,Li4 V3 Cr3 Fe2 O16,0.9483999999999999,1
30431,Li8 V6 P16 O58,0.3345,1
30432,Li8 V6 P16 O58,0.4874,1
30433,Li4 Nb2 Fe3 Cu3 O16,0.0,1
30434,Li4 Fe1 P6 H12 O24,3.9859999999999998,2
30435,Li4 Cr3 C6 O18,0.5532000000000004,2
30436,Li3 Zn2 Fe19 O32,1.3264,8
30437,Li6 V6 P16 O58,0.2941,1
30438,Li6 V6 P16 O58,0.004600000000000021,1
30439,Li6 Mn2 V2 P6 O24,0.7348999999999999,1
30440,Li6 Mn2 V2 P6 O24,0.7252999999999998,1
30441,Li6 V6 P16 O58,0.7920999999999999,1
30442,Li3 Fe2 Co2 O8,0.7182,2
30443,Li8 V12 Cu4 O32,0.5213999999999999,1
30444,Li2 Mg1 Co3 O8,0.0,12
30445,Li4 Ce2 O6,2.1429,15
30446,Li4 Co2 C4 O12,2.5941,14
30447,Li2 Fe16 O24,0.8239000000000001,1
30448,Li2 Fe16 O24,0.6537999999999999,1
30449,La6 Sc2 O12,3.9037999999999995,36
30450,La15 Ni8 O32,0.0,8
30451,Ga12 N4 O12,1.0878999999999999,1
30452,Fe8 O8 F8,1.942,84
30453,Fe8 O2 F14,1.8440999999999999,1
30454,Fe39 Si3 O56,0.7005999999999997,5
30455,Dy2 Cl2 O2,5.195600000000001,59
30456,Cr2 Co2 P4 O16,0.6653000000000002,11
30457,Bi17 W3 O33,1.2760000000000007,1
30458,Ba8 Lu12 O26,2.5592,45
30459,Nd2 Al2 Fe15,0.0,166
30460,H20 I4 O24,1.2254999999999998,1
30461,Cd1 Cl2,3.1087,1
30462,Ba2 O12,0.13090000000000002,15
30463,Ba1 Mn4 O8,0.0,12
30464,Ba1 Na2 Pb1,0.0,225
30465,Ba3 Ca1,0.0,221
30466,Cd1 In1,0.0,187
30467,Ca1 Eu3,0.0,225
30468,Ce2 Ag1 Hg1,0.0,225
30469,Eu2 Ag1 Pd1,0.0,225
30470,Ga3 Sn1,0.0,139
30471,Fe1 Sn1 Rh2,0.0,225
30472,Ga1 Sn3,0.0,139
30473,Eu1 Bi1 Pd2,0.0,225
30474,Eu6 Mg2,0.0,194
30475,Gd3 Ga1,0.0,221
30476,Gd3 Er1,0.0,221
30477,Gd2 In1 Hg1,0.0,225
30478,Ho1 Er1 Ir2,0.0,225
30479,Ho1 Mg5,0.0,8
30480,La2 Zn6,0.0,194
30481,Li1 Sc2 Pd1,0.0,225
30482,Er4 Mn8,0.0,12
30483,Mg16 U1 Al12,0.0,217
30484,Mg1 Hg5,0.0,189
30485,Nb4 F20,4.3984,12
30486,Pr1 Nd1,0.0,187
30487,Sr2 Pd1 Au1,0.0,225
30488,Sr2 Ca1 Eu1,0.0,225
30489,Tl6 Sn2,0.0,194
30490,Tm5 Mg1,0.0,155
30491,U2 Al6,0.0,194
30492,Tl2 In6,0.0,194
30493,Pr2 Al2 Co15,0.0,166
30494,Cs4 S10 O2,1.1809999999999998,2
30495,Ce14 Pd6,0.0,36
30496,B8 Mo8 Os4,0.0,58
30497,Mn2 In4 Ni2 O12,1.3835999999999995,14
30498,Y10 Si6 C2,0.0,193
30499,U6 Cu6 Sn8,0.0,220
30500,Cu2 Pb6 Cl4 O8,0.0,11
30501,Al12 Ge10,0.49599999999999955,167
30502,Ba4 S4 O16,5.800800000000001,19
30503,La6 Al2 Co2 S14,0.0,173
30504,Dy6 Ga2 Ni2 S14,0.29079999999999995,173
30505,Dy6 Mn2 Al2 S14,0.0693999999999999,4
30506,Yb4 Al4 B16,0.0,55
30507,Nd1 P3 H6 O12,5.2018,174
30508,Sm2 Co17 H3,0.0,166
30509,Pr4 Mn4 B16,0.0,55
30510,Nd4 Ge18,0.0,59
30511,Sr8 Li4 H8 N4,1.4667999999999999,62
30512,Gd6 Al2 Cd2 S14,1.3492000000000002,173
30513,Ba2 Al10 O18,0.0,194
30514,Mn2 V4 Pb4 O16,1.7683999999999997,11
30515,Co12 Mo12 C4,0.0,227
30516,Eu4 Sb8 S16,0.04150000000000009,62
30517,Ba14 Ge78,0.032099999999999795,36
30518,La4 B10 H18 C8 O30,4.3376,9
30519,Mn4 B8 H32,1.7671000000000001,70
30520,W24 I72,1.0703,92
30521,Ca4 V4 Si16 O44,3.3303000000000003,33
30522,Er18 C18 O72,0.10620000000000007,174
30523,K8 S4 I4 O28,0.015300000000000008,14
30524,Cu16 S4 O40,0.0,14
30525,Y4 C12 O32,0.2628999999999999,19
30526,Sr3 Hg33,0.0,221
30527,Lu12 In4 S24,1.1627999999999998,18
30528,Na4 Si32 H28 O80,4.2768,1
30529,Te48 W16 Cl64 O16,1.1381,14
30530,Y4 Cu10 Ni24,0.0,63
30531,Si26 H156 C52,3.5656,2
30532,Th2 H56 C24 N24 O36,3.4445,15
30533,Rb4 Zr4 N12 O44,0.012899999999999912,60
30534,Ca2 Mg10 P6 C2 O32,0.6053999999999999,2
30535,Dy8 In10 S26,0.0,55
30536,Ca2 Ce2 Al4 Fe2 Si6 O26,0.21989999999999998,11
30537,Tb8 Cr8 O40,0.48829999999999996,14
30538,Si48 H288 C96,3.6196,14
30539,B80 H144 C16 S8,2.0905,14
30540,H28 C6 N2 Cl10,5.5294,9
30541,K4 Cu2 H28 C8 N12 O16,0.9624,14
30542,Hf4 S4 O24,2.8906,62
30543,Na2 Yb2 B8 H32,0.0,63
30544,Mg4 B8 H28,3.8834,1
30545,Cu2 H20 C4 N4 Cl8,0.36640000000000006,14
30546,Ag8 I4 O20,0.0,14
30547,H38 C12 N14 O8,4.7887,2
30548,La4 I16 O48,0.023400000000000087,14
30549,K4 Gd4 P8 H16 O36,3.1399000000000004,14
30550,Mg2 V10 H40 N2 O44,2.5225,2
30551,Mo24 P2 O80,0.2359,227
30552,U2 Cr8 H36 O48,2.367,15
30553,Fe12 P16 H32 N4 O48,1.5155000000000003,14
30554,Li4 Al4 H48 C16,4.1876,14
30555,In4 P8 Pb4 O32,0.0009999999999998899,14
30556,Re4 Te8 Cl44 O2,0.07750000000000012,14
30557,Ba3 Mo1 O6,2.2232999999999996,225
30558,Rb3 Gd1 F6,4.1628,139
30559,Sr2 Cr1 Os1 O6,0.0,225
30560,Cs3 Fe1 F6,3.7260999999999997,139
30561,Rb3 Eu1 F6,0.0,225
30562,Tm2 Ge6 Pd1,0.0,38
30563,Cs2 K1 Yb1 Cl6,0.0,225
30564,Na2 Sn1 Hg1,0.0,216
30565,Ba1 La1 Co2 O5,0.0,47
30566,Zr10 Al6 N2,0.0,193
30567,U4 Ga2 Co4,0.0,127
30568,Tl1 Cu2 H1 Se2 O10,0.5154000000000001,12
30569,Sr2 Er2 Al6 Si2 N8 O6,2.2305,186
30570,Sr10 Co6 F38,0.30990000000000006,87
30571,Ni4 Te4 O12,2.511,62
30572,Nd8 Cu4 Sn4 O24,0.0235000000000003,11
30573,Nd6 Cd4 Si6 O26,0.0,176
30574,Nd4 Ga18 Ni1,0.0,139
30575,Na6 Mg4 Mo6 O24,1.1560000000000001,15
30576,Mg4 Cr4 Si8 O24,1.8921999999999999,14