Index,Composition,bandgap,spgN
4058,Ce8 U2 O21,0.0,65
4059,Li19 Mn5 N9,0.0,5
4060,Bi14 S1 O24,1.1040999999999999,2
4061,Li19 Mn9 As12,0.0,25
4062,Ta2 Hg4 F12,0.0,15
4063,Sr4 La2 F14,4.8865,8
4064,Y6 Ta2 O14,3.6486,1
4065,Cd3 Bi10 O20,0.0,5
4066,Ba1 Fe2 S4,0.0,5
4067,Na8 Sr12 P16,0.8050000000000002,14
4068,V4 C2 N2,0.0,141
4069,Y1 Zr5 O12,0.0,5
4070,Cd4 Bi12 O22,1.8321,1
4071,Ca5 Al12 Si12 Ag2 O48,2.194,1
4072,B3 H60 C16 N12 O12,0.0,215
4073,Sn4 P12 O36,0.0,19
4074,Al16 O24,3.3432999999999993,1
4075,Cd18 Sn19 O56,0.0,1
4076,Al12 Bi48 Cl46,0.47119999999999995,1
4077,Mg12 V8 O24,1.1945999999999994,1
4078,Sb4 H4 C4 S4 O12 F32,4.5118,14
4079,As2 H6 C2 N2 O2 F18,4.8974,2
4080,Zr12 Al4 Ni2 H20,0.0,190
4081,Ti5 Fe11 O24,0.9222000000000001,1
4082,W14 O42,2.4793,1
4083,Mo4 S4 Cl28 O4,1.8305,14
4084,Th9 Mo18 O72,2.7906,174
4085,Co29 O40,0.26370000000000005,1
4086,Ni4 B72 H88 C16,1.5217,14
4087,Ni16 P16 O64,1.3737,9
4088,Fe42 H2 O64,1.3254000000000001,36
4089,Be8 P4 H20 O28,4.9750000000000005,14
4090,Ca2 Al11 Si13 Ag7 O48,1.7357,1
4091,Mn27 Nb13 O60,0.0,1
4092,H40 S4 N16 O16,5.1317,14
4093,H52 Os4 N24 Cl8 O18,2.4036,15
4094,Zn12 H24 C24 O48,4.3891,4
4095,Na8 H24 Pt4 C16 N16 O12,2.4515000000000002,2
4096,Na6 H18 C12 O24,4.6376,2
4097,K10 Y2 H16 C16 O32,4.4154,15
4098,Cr2 P6 H36 C12 S12 O12,2.5998,15
4099,Fe1 H12 C2 S2 O12 F6,4.0772,12
4100,Co2 H2 O4,0.0,194
4101,K8 Mo4 H8 S8 O36,2.9941000000000004,15
4102,Fe2 P4 H48 C16 S8 N2 Cl2 O8,3.1831,2
4103,Zr2 Ti4 O2,0.0,65
4104,Fe1 P2 S6,0.0,5
4105,Y4 Ge2 O10,3.7067,1
4106,Li1 Fe1 Cu1 S2,0.0,8
4107,La4 Pr4 O14,0.0,227
4108,Li3 Nb1 Cu4 O8,0.0,12
4109,Li4 Fe2 S4,0.16339999999999977,1
4110,Li4 Cu3 Te1 O8,0.0,166
4111,Li4 Cu4 C8 O20,1.2767999999999997,15
4112,Li8 Cu8 Si24 O60,0.0,64
4113,Li1 Cu2 P1 O4,0.31989999999999963,121
4114,Y1 Zr4 O9,0.07570000000000032,1
4115,Yb2 Al2 O6,0.0,194
4116,Yb8 Ti4 O20,0.0,62
4117,Li4 Cu2 Si2 O8,0.0,4
4118,Li3 Cu3 C3 O9,1.1411999999999995,174
4119,Li3 Fe1 Co2 O6,0.5338000000000003,1
4120,Li8 Ti4 Co12 O32,0.1451,1
4121,Fe6 O6 F6,0.0,6
4122,Li4 Fe3 Co7 O20,0.0,10
4123,Li1 Fe3 O6,0.0,12
4124,Co6 O7 F5,0.0,5
4125,Co6 O5 F7,0.25540000000000007,1
4126,Na2 Fe4 O8,0.0,12
4127,Li12 Fe12 O36,0.3214,8
4128,Mn1 Ni1 O2,0.0,123
4129,Li4 Cu8 Si8 O26,0.06499999999999995,2
4130,Sr12 Bi4 O22,1.0352999999999999,6
4131,Li12 Fe4 S12,0.0,14
4132,Na16 Cu8 O16,0.06790000000000007,4
4133,Li4 Co3 Ni3 P6 O24,0.0,1
4134,V2 Co2 O8,0.3679000000000001,74
4135,Cd4 Co8 O16,0.3248000000000002,1
4136,Li4 Cr2 Fe6 O16,0.0,9
4137,Cr4 Fe4 O16,0.6658000000000002,12
4138,Li1 Al2 Fe1 O6,0.8270999999999997,12
4139,Rb2 Fe2 O4,1.9188,63
4140,Cr3 Sn3 Sb2 O16,0.6717,1
4141,Ti1 V4 Co1 O12,0.6760999999999999,5
4142,Li4 Fe3 Te1 O8,0.8782999999999994,12
4143,Mn3 Te1 O8,0.0,166
4144,Co2 Te2 O8,0.9034999999999997,15
4145,Fe1 Co1 O4,0.0,10
4146,Tb8 Zr8 O28,4.0184,92
4147,Li3 Co4 Cu1 O8,0.0,12
4148,Al3 Cr3 Sb2 O16,0.2662,1
4149,Li1 Cr3 O4,0.045099999999999696,2
4150,Co1 Sb1 O4,0.0,119
4151,Fe10 O16 F4,0.0,1
4152,Li4 Nb3 V2 Co3 O16,0.4493999999999998,1
4153,Li4 Fe5 Sb1 P6 O24,1.3064000000000004,1
4154,Fe4 O4 F6,0.0,1
4155,Li24 Nb8 H8 O16 F56,2.5571,60
4156,P2 H36 C12 N6 O2,3.9086,11
4157,Cr3 Sb5 O16,0.5430000000000001,8
4158,Fe6 O7 F5,0.0,1
4159,Rb1 Sn1 S2,0.0,160
4160,Li2 Cu10 P4 O16,0.15640000000000054,1
4161,Fe10 O6 F14,0.6414,5
4162,Fe10 O6 F14,1.2357000000000002,2
4163,Fe10 O4 F16,1.1663999999999999,1
4164,Co6 O8 F4,0.0,12
4165,Li11 Fe4 O12,0.0,6
4166,Hf2 Nb2 O8,0.0,15
4167,Li12 V16 O12 F36,0.3540000000000001,1
4168,Fe8 O14 F2,0.0,63
4169,Sr2 Li1 Pt1,0.0,225
4170,Li3 Mn3 Ni1 O8,0.0,12
4171,Dy2 Br4,0.0,136
4172,Eu1 Ru1 O3,0.0,221
4173,Ca8 Sn2 S12,1.8131999999999997,167
4174,Rb2 U2 O5,0.0,123
4175,Pb12 N4 O24,0.0,29
4176,Li4 Co4 O8,0.0,2
4177,Sm2 In3 Co9,0.0,1
4178,Bi2 I8,0.46820000000000006,74
4179,Fe4 S6,0.0,167
4180,Sr1 Te1 Pd1,0.32149999999999945,216
4181,Ba1 Na1 Sb1,0.7372000000000001,216
4182,Tm1 Bi3,0.0,139
4183,Zr3 Pt1,0.0,221
4184,Sm3 Zr1,0.0,139
4185,U1 Sn1,0.0,187
4186,K3 Sr1,0.0,225
4187,Hg6 Au2,0.0,194
4188,K1 Pt1 O3,0.0,221
4189,Ni3 Au1,0.0,139
4190,Ni2 H4 Se2 O10,2.0722,15
4191,Ho2 Os1 Pt1,0.0,225
4192,La1 Dy1 Ru2,0.0,225
4193,Yb1 Er3,0.0,139
4194,Tm1 Th1 Os2,0.0,225
4195,K3 In1,0.0,139
4196,Ce6 Pa2,0.0,194
4197,Ac6 Sc2,0.0,194
4198,Au2 O4 F2,0.9531000000000001,20
4199,Ag2 Br2 O4,0.0,11
4200,V2 Cu2 O4,0.0,194
4201,La8 Al7 B1 O24,3.5096,221
4202,K1,0.0,123
4203,Nb1 Cr3,0.0,225
4204,Ho2 Zn2 Co4 O12,0.0,7
4205,Mg1 V4 S8,0.0,166
4206,Zn1 Ni4 S8,0.0,166
4207,Ca6 Mn4 Ga4 O20,0.26139999999999985,7
4208,V4 Zn2 O10,1.9831999999999999,59
4209,Co4 P8 O28,0.15579999999999994,14
4210,Mg4 Mn8 O16,0.0,62
4211,Ca1 Fe4 O8,0.0,8
4212,Mg1 Ti4 O8,0.0,166
4213,Ca2 V4 O8,1.5898999999999992,5
4214,Mg4 Fe8 O16,1.6186000000000003,2
4215,Mg4 Mn8 O16,0.5791,2
4216,Mg2 Mn4 O8,0.6440000000000001,2
4217,Al4 Bi6 O18,0.0,9
4218,Ca3 Cu6 As8 O32,0.059799999999999964,1
4219,Ca6 Mn4 Fe4 O20,0.06600000000000006,7
4220,La2 Zn1 Bi1 O6,0.0,148
4221,Al10 Cu6 O24,0.0,8
4222,Ca4 Fe2 Rh2 O12,0.05650000000000022,5
4223,Ca1 Ni4 S8,0.0,166
4224,Mg4 Mn8 O16,0.5219999999999998,11
4225,Mg4 V2 Sb2 O12,1.0606,11
4226,Zn2 Bi3 O8,0.0,12
4227,Zn4 Co2 Sb2 O12,0.6715,11
4228,Mg4 Bi4 O12,0.0,62
4229,Mg2 Sb2 F10,3.2384,1
4230,Ca2 Co10 O14,0.1750999999999996,63
4231,Re4 O14,0.05119999999999991,63
4232,Mg12 Ti8 Si12 O48,0.0,230
4233,Zn6 Cr4 O14,0.4205000000000001,36
4234,Ca12 Si12 Sb8 O48,2.9616999999999996,230
4235,Ca4 Sb4 O12,0.0,62
4236,Ca4 Ta2 Sb2 O12,1.2435999999999998,11
4237,Ca4 V4 O10,1.0142000000000007,55
4238,Mg4 Cr4 O12,0.0,62
4239,Ca4 Ni4 O12,0.29590000000000005,62
4240,Mg4 Ta2 V2 O12,0.13039999999999985,11
4241,Mg4 Ta2 Ni2 O12,0.0,11
4242,Y2 Co4 O8,0.2719000000000005,15
4243,Zn6 Cr4 Si8 O28,2.0721,15
4244,Ca4 Cu4 O8,0.3855999999999997,1
4245,Ca4 Sb2 W2 O12,1.6194999999999995,14
4246,Zn6 Co4 Si8 O28,0.7730000000000001,15
4247,Mg4 Ni2 W2 O12,2.6519000000000004,14
4248,Mg6 Sn12 O24,1.3004999999999995,8
4249,Zn6 Sb12 O24,2.2199999999999998,1
4250,Mg4 Ti2 Ir2 O12,0.0,14
4251,V4 As4 O20,2.2473,19
4252,Ca6 V12 O24,1.3217000000000003,1
4253,Ca4 As4 W4 O20,2.4346,1
4254,Zn2 Mo1 W1 O6,1.6303000000000005,1
4255,Ca8 Ta16 Co8 O56,2.6655,14
4256,V1 Co1,0.0,221
4257,As1 Te1,0.0,225
4258,B1 Pd3 Er1,0.0,221
4259,Sn12 P4 O24,0.0,14
4260,Fe1 Ni3,0.0,225
4261,Pr1 N1,1.5598,216
4262,Sr3 Bi1 As1,0.0,221
4263,Cr24 N16,0.0,206
4264,Cr6 N8,0.0,227
4265,Cr6 N8,0.0,11
4266,Mg3 Zr1,0.0,25
4267,Mg3 Cu1,0.0,25
4268,Ca1 Mg3,0.0,25
4269,Hf1 Mg7,0.0,187
4270,Mg7 Ti1,0.0,187
4271,Mg7 Si1,0.0,187
4272,Sr1 Mg6 Cd1,0.0,38
4273,Hf1 Mg6 Cd1,0.0,38
4274,Hf1 Mg6 Cd1,0.0,38
4275,Ca1 Mn1 O3,0.0,221
4276,La1 Mg6 Cd1,0.0,38
4277,La2 N2,1.7318999999999996,129
4278,Np2 Sb2 Te2,0.0,129
4279,Li1 Ce1 Mg6,0.0,38
4280,Mg6 Ga1 Ni1,0.0,38
4281,Li1 Mg6 Ni1,0.0,38
4282,Mg6 Zr1 Sn1,0.0,38
4283,Li1 Mg6 Zr1,0.0,38
4284,Mg6 Zr1 Zn1,0.0,38
4285,Na1 Y1 Mg6,0.0,38
4286,Mg6 Zn1 Ni1,0.0,38
4287,Y1 Mg6 Zr1,0.0,38
4288,Ce1 Y1 Mg6,0.0,38
4289,Y1 Mg6 Cu1,0.0,38
4290,Ce1 Y1 Mg6,0.0,38
4291,Na1 Ca1 Mg6,0.0,38
4292,Mg15 Mo1,0.0,187
4293,Y1 Mg6 Al1,0.0,38
4294,Yb2 Cl6,0.0,63
4295,Mg14 Sn1 Mo1,0.0,187
4296,Mg14 Cr1 Sb1,0.0,187
4297,Hf1 Mg14 Nb1,0.0,38
4298,Mg14 Nb1 Bi1,0.0,38
4299,Mg14 Nb1 Sb1,0.0,38
4300,Sr1 Mg14 Sb1,0.0,38
4301,Na1 Mg14 Sb1,0.0,187
4302,Na1 Hf1 Mg14,0.0,38
4303,Ce1 Mg14 Ga1,0.0,187
4304,Sr1 La1 Mg14,0.0,38
4305,Ce1 Mg14 Si1,0.0,38
4306,Ba1 Li1 Mg14,0.0,187
4307,K1 Mg14 Cd1,0.0,38
4308,K1 Mg14 Ga1,0.0,38
4309,Sr1 Mg14 Cu1,0.0,187
4310,Te4 Mo2 W2 Se2 S2,0.01890000000000036,156
4311,Te4 Mo2 W2 S4,0.0,156
4312,Te4 Mo2 W2 S4,0.0,156
4313,Te4 Mo3 W1 S4,0.0,156
4314,Te4 Mo2 W2 S4,0.0,156
4315,Te4 Mo2 W2 S4,0.0,156
4316,Te4 Mo3 W1 S4,0.0,156
4317,Te4 Mo3 W1 S4,0.0,156
4318,Te4 Mo2 W2 S4,0.16610000000000014,156
4319,Te4 Mo2 W2 Se2 S2,0.014800000000000146,156
4320,Te4 Mo3 W1 S4,0.0,156
4321,Te4 Mo2 W2 Se2 S2,0.0,156
4322,Mg14 Fe1 Sb1,0.0,187
4323,Mg14 Fe1 Cu1,0.0,187
4324,Te4 Mo3 W1 S4,0.0,156
4325,Mg14 Fe1 Cu1,0.0,38
4326,Y1 Mg14 Cr1,0.0,187
4327,Y1 Mg14 Nb1,0.0,38
4328,La1 Mg14 Mn1,0.0,38
4329,Ba1 Ca1 Mg14,0.0,187
4330,Mg14 Zr1 Mn1,0.0,187
4331,Ca1 Mg14 Ni1,0.0,187
4332,Mg14 Mn1 Ni1,0.0,38
4333,Mg14 Ti1 Al1,0.0,187
4334,Mg14 Nb1 Al1,0.0,38
4335,Ba1 Mg14 Al1,0.0,38
4336,Mg14 Al1 Ni1,0.0,38
4337,Ca1 Mg14 Co1,0.0,38
4338,Ce1 Mg14 Sn1,0.0,187
4339,Mg14 Si1 Ni1,0.0,38
4340,Te4 Mo2 W2 Se2 S2,0.0017999999999998018,156
4341,Te4 Mo2 W2 S4,0.0,156
4342,Li56 Bi8 N32,1.113,218
4343,Te4 Mo2 W2 S4,0.0,156
4344,Te4 Mo2 W2 S4,0.29949999999999966,156
4345,Te4 Mo2 W2 Se2 S2,0.0,156
4346,Te4 Mo2 W2 S4,0.0,156
4347,Te4 Mo2 W2 S4,0.0,156
4348,Te4 Mo2 W2 S4,0.0,156
4349,Te4 Mo3 W1 S4,0.0,156
4350,Mg6 Cr1 Ni1 O8,0.0,123
4351,Mg6 V1 Cu1 O8,0.0,123
4352,Mg6 V1 Cu1 O8,0.0,123
4353,Na1 Mg6 Co1 O8,0.3473999999999995,123
4354,Ca1 Mg6 Co1 O8,1.3336999999999994,123
4355,Mg6 Al1 Cu1 O8,0.0,123
4356,K1 Mg14 Cr1 O16,0.2734999999999994,47
4357,Mg14 Nb1 V1 O16,0.0,123
4358,Na1 Ce1 Mg14 O16,0.0,47
4359,Li1 Hf1 Mg14 O15,0.0,25
4360,Na1 La1 Mg14 O16,3.3084999999999996,123
4361,Mg14 Co1 Sn1 O16,0.0,123
4362,Mg14 Co1 Sn1 O16,0.0,47
4363,Mg14 Zn1 Sn1 O16,0.06759999999999877,123
4364,Na1 Li1 Mg14 O15,1.1791000000000005,25
4365,Mg14 Ti1 Cu1 O16,0.0,123
4366,Sr1 Mg14 Fe1 O16,2.4963999999999995,123
4367,Li1 Mg14 Si1 O16,0.0,47
4368,K1 Mg14 Fe1 O16,0.48189999999999955,47
4369,Mg14 Mn1 Sn1 O16,0.44120000000000026,47
4370,Ca1 Y1 Mg14 O16,0.0,123
4371,Mg14 Al1 Cd1 O16,0.3940999999999999,47
4372,Mg30 Fe1 B1 O32,0.38039999999999985,123
4373,Mg30 Zn1 C1 O32,2.9424,123
4374,Mg30 Fe1 C1 O32,2.3954000000000004,123
4375,Cs1 Mg30 Fe1 O32,1.9578999999999995,123
4376,Y1 Mg30 Sn1 O32,0.0,123
4377,Mg30 Mn1 C1 O32,2.0061999999999998,123
4378,Mg30 Mn1 B1 O32,0.5030000000000001,123
4379,Mg30 Mn1 Si1 O32,0.9581999999999997,123
4380,Mg30 Al1 Bi1 O32,0.5358999999999998,123
4381,Mg30 Cr1 B1 O32,0.17879999999999985,123
4382,Hf1 Mg30 Cd1 O32,0.3465999999999987,123
4383,Cs1 Mg30 Ga1 O32,3.0620000000000003,123
4384,Mg4 Bi8,0.0,63
4385,Mg1 Al1,0.0,221
4386,Mg6 Bi6,0.0,8
4387,Mg6 Bi6,0.0,38
4388,Cs1 Mg30 Cr1 O32,2.5095,123
4389,Rb1 Mg30 Bi1 O32,3.344500000000001,123
4390,Ce6 Mg6,0.0,38
4391,Rb1 Na1 Mg30 O31,2.0361,99
4392,Mg30 Cd1 Si1 O32,1.5985000000000005,123
4393,Na1 Mg30 B1 O31,1.9773999999999994,99
4394,Mg30 Cd1 Si1 O32,1.5650000000000004,123
4395,Sr1 Mg30 Si1 O32,1.2016999999999998,123
4396,Sr1 Mg30 Si1 O32,1.9162,123
4397,K1 Mg30 B1 O31,1.9395999999999995,25
4398,La1 Cr1 Mo1 O6,1.512,1
4399,Mg4 Ti8 Cu8 O32,0.2861,14
4400,Mg4 Cu8 Bi8 O32,0.19530000000000003,14
4401,Mg6 Co12 O24,0.0,1
4402,Zn4 Cu8 Te8 O32,0.0,14
4403,Ho2 Zn2 Ni4 O12,0.0,31
4404,Zn6 Co12 O24,0.0,1
4405,Mg6 Mo12 O24,1.2347000000000001,1
4406,Bi6 P6 O26,0.0,11
4407,Ba4 Mg4 Sn4 F28,0.0,14
4408,Mg4 Co8 Cu8 O32,0.0,14
4409,Mn8 Zn4 O16,0.6234000000000002,57
4410,Ta8 Zn8 Bi8 O40,2.9202000000000004,61
4411,Ca4 Sn4 As8 O28,2.2721,14
4412,Mg3 Fe4 W6 O24,1.6917999999999997,2
4413,Zn4 Co6 O16,0.0,186
4414,Fe4 W6 O24,2.5124,2
4415,Zn4 Fe6 O16,0.0,186
4416,Ge8 Sb4 O24,0.0026999999999999247,14
4417,Cu3 Ni4 O12,0.0,204
4418,Ca4 Ti4 Si16 O40,0.0,130
4419,Mn4 Ni4 P8 O36,0.0,1
4420,Mg4 Sn4 Bi4 O20,0.0,14
4421,Ca4 Nb4 Cu2 O16,0.41090000000000027,2
4422,La2 Zn2 Fe2 Ni2 O12,0.0,7
4423,La2 Zn2 Fe2 Cu2 O12,0.0021999999999993136,7
4424,Mg2 Mo4 P4 O20,0.5431999999999997,43
4425,Zn4 Bi4 Mo4 O20,1.4226,14
4426,Pr2 Zn2 Ag4 O12,0.0,6
4427,Ba6 Sb6 F33,0.2953999999999999,145
4428,Fe4 Ge8 O24,0.0632,14
4429,Ca6 Ti12 O24,0.0,8
4430,Pr2 V4 Zn2 O12,1.0704000000000002,7
4431,Pr2 Zn2 Co4 O12,0.0,31
4432,La2 Mg2 V2 Cr2 O12,1.3730000000000002,7
4433,Zn2 Sb4 O12,1.0979999999999994,31
4434,Al2 Co4 S8,0.0,141
4435,V4 Zn2 O12,1.6669000000000003,1
4436,Sr4 Al2 Cu4 Ag2 O14,0.0,1
4437,Ba2 Ca2 Mn3 Tl2 O10,0.0,1
4438,Zn2 Cr2 S2 F10,1.2167,1
4439,Ca8 Fe10 Te6 O36,1.0503999999999998,5
4440,Zn6 Si8 Mo4 O28,0.8881999999999999,15
4441,Zn4 Cr2 Ir2 O12,0.0,14
4442,W8 O16,2.4804999999999997,26
4443,Zn2 Ag4 O8,0.13440000000000007,2
4444,Zn2 Cu4 O8,0.0,63
4445,Y1 Cr1 W2 O8,2.0197,1
4446,Ca4 Y2 Fe2 O10,0.9384000000000001,46
4447,Ca4 Y2 Ni2 O10,0.0,5
4448,Mg4 Nb4 Bi2 O16,0.0,1
4449,Sr4 Co2 Cu2 S2 O6,0.0,1
4450,Sr4 Mg1 Cr2 S2 O6,1.8934000000000006,115
4451,Sr3 Mg1 Fe2 S2 O5,0.8619999999999997,119
4452,Mg2 Bi4 O12,0.17490000000000006,31
4453,Mg2 Cr4 O8,1.0611000000000002,160
4454,Mo8 P8 O32,1.1832000000000003,15
4455,La2 Zn2 Cr2 Mo2 O12,1.4599000000000002,7
4456,Mg1 Ni3,0.0,221
4457,Sc4,0.0,129
4458,Na2 I2,3.0807,141
4459,Ti2 S4,0.0,58
4460,Mg18 Si10,0.0,9
4461,La7 Sm1 Mn3 Fe5 O24,0.0,8
4462,La5 Sm3 Ni7 Ag1 O24,0.0,8
4463,La7 Sm1 Fe8 O24,0.8335999999999997,221
4464,La16 Sm16 Ni32 O80,0.5480999999999998,1
4465,Sr1 Ca7 Fe1 Co7 O24,0.0,160
4466,Eu6,0.0,167
4467,Al2 Zn1 S4,0.0,160
4468,Cr4 Si2 C2,0.0,194
4469,Mg2 Si2 Sb4,0.8174000000000001,122
4470,La2 Ti1 Co1 O6,1.2579000000000002,139
4471,Cr1 Cd3 Te4,0.0,215
4472,Te4 Mo2 W2 Se2 S2,0.08640000000000025,156
4473,Cr3 P3 Pd3,0.0,189
4474,Li2 Dy2 Sn4,0.0,63
4475,Zr4 In8 O20,1.5170000000000003,62
4476,Mg4 Ag8,0.0,194
4477,Na4 Ni8 P8 O36,0.0,62
4478,La4 Mg8,0.0,63
4479,La4 Mg8,0.0,15
4480,Mg8 Sn4,0.0,63
4481,Mg8 Sn4,0.0,12
4482,Mg12 Sn6,0.0,155
4483,Sr8 Mg4,0.0,15
4484,Y6 Mg6,0.0,8
4485,Mg6 Zn12,0.0,155
4486,Mg8 Sn4,0.0,63
4487,Mg8 Sn4,0.0,15
4488,Mg15 Sb3,0.0,155
4489,Mg3 Sb3,0.0,166
4490,Y1 Sn1,0.0,221
4491,Ce3 Mg1,0.0,221
4492,Mg1 Zn3,0.0,187
4493,Zn3 Cr1 Se4,0.0,215
4494,Mg30 Nb1 Sn1 O32,0.6916999999999991,123
4495,Al2 Zn2 S5,0.0246000000000004,160
4496,Al4 Zn2 S8,0.42930000000000046,186
4497,B6 Pb1,0.9208999999999996,221
4498,Cd1 Cu2 Se2,0.0,164
4499,H3 C1 I1,4.273499999999999,160
4500,Cr24 N16,0.0,199
4501,Li12 Mn16 O32,0.21660000000000013,1
4502,Ce1 Mg14 Co1,0.0,38
4503,La1 Mg6 Zn1,0.0,38
4504,Sr28 Ca4 Ti28 Mn4 O80,0.0,1
4505,La6 Sm2 Cr5 Fe3 O24,1.4566000000000008,6
4506,Ca2 Sn2 S6,0.8903000000000003,161
4507,Ca4 Sn4 S12,1.6245999999999996,19
4508,Li1 Cd1 Sb1,0.0,216
4509,Li9 Mn2 Co5 O16,0.0,6
4510,Li9 Mn2 Co5 O16,0.0,6
4511,Li9 Mn2 Co5 O16,0.0,6
4512,Li9 Mn2 Co5 O16,0.0,6
4513,Li9 Mn2 Co5 O16,0.0,6
4514,Li9 Mn2 Co5 O16,0.0,6
4515,Li9 Mn2 Co5 O16,0.0,6
4516,Li9 Mn2 Co5 O16,0.0,6
4517,Li9 Mn2 Co5 O16,0.0,6
4518,Li9 Mn2 Co5 O16,0.0,8
4519,Li9 Mn2 Co5 O16,0.0,8
4520,Li9 Mn2 Co5 O16,0.0,8
4521,Li9 Mn2 Co5 O16,0.0,8
4522,Li9 Mn2 Co5 O16,0.0,8
4523,Li9 Mn2 Co5 O16,0.0,8
4524,Li9 Mn2 Co5 O16,0.0,8
4525,Li9 Mn2 Co5 O16,0.0,8
4526,Li9 Mn2 Co5 O16,0.0007999999999999119,8
4527,Li9 Mn2 Co5 O16,0.0,6
4528,Li9 Mn2 Co5 O16,0.0,8
4529,Li9 Mn2 Co5 O16,0.0,10
4530,Li9 Mn2 Co5 O16,0.0,12
4531,Li9 Mn2 Co5 O16,0.0,8
4532,Li9 Mn2 Co5 O16,0.0,8
4533,V18 Cu2 O45,0.7643,1
4534,Tl4 Co4 O12,0.03329999999999966,2
4535,Nd2 Sm2 O4,0.0,141
4536,Nd1 Y1 O2,0.0,166
4537,Li3 Bi3 P6 O24,0.15809999999999996,1
4538,Fe8 P18 O64,0.0,114
4539,Tl8 S4 O12,2.2114000000000003,14
4540,Te4 O8,2.3232,62
4541,Dy4 Mn8,0.0,194
4542,Ho4 Mn8,0.0,63
4543,Li4 Be4 B4,0.0,156
4544,Rb2 La1 Nb2 O8,0.3067000000000002,123
4545,Zn4 Sn2 O8,0.40260000000000007,227
4546,Si1 Hg2 O4 F6,0.134,2
4547,Ni2 C4 O8,3.1992000000000003,14
4548,K2 Cd1 N12,3.0106,12
4549,K4 Pd2 O8,0.4894,1
4550,Fe1 Cu6 Sn2 S8,0.0,115
4551,La10 B2 Pb6,0.0,193
4552,Yb8 S12,1.7523000000000004,62
4553,Te2 I14,0.0,129
4554,Nd2 Ga2 Fe15,0.0,166
4555,Cr1 Ga7 P8,0.0,111
4556,Rb2 Li1 Ta1 Cl6,0.0,225
4557,K2 Rb1 Nd1 Cl6,4.3591,225
4558,K2 Rb1 Mo1 Br6,1.5723,225
4559,K2 Rb1 Ce1 Cl6,0.347,225
4560,K2 Rb1 Nd1 I6,3.1287000000000003,225
4561,K2 Rb1 Nd1 Br6,3.6906999999999996,225
4562,K2 Rb1 Ce1 I6,0.27939999999999987,225
4563,K2 Rb1 Ce1 Br6,0.31590000000000007,225
4564,Rb2 Ag1 Mo1 I6,0.24949999999999983,225
4565,K2 Tl2 I6,0.0,225
4566,K3 Al1 I6,1.7713,225
4567,K2 Nd1 Cu1 I6,1.8245,225
4568,Cs2 Li1 Ta1 Cl6,0.0,225
4569,Cs1 Rb2 Nb1 F6,0.0,225
4570,Na2 Ga1 Cu1 F6,0.0,225
4571,Na3 Sc1 Cl6,3.9058,225
4572,Na2 Li1 In1 Cl6,2.9328,225
4573,Na2 Cu1 Bi1 Cl6,0.9423000000000004,225
4574,Na2 Cu1 Au1 Cl6,0.0,225
4575,K2 Rb1 As1 I6,2.1734,225
4576,K2 Sc1 Hg1 Cl6,0.0,225
4577,K2 Y1 Au1 Br6,1.6798,225
4578,K2 Hg1 As1 F6,0.0,225
4579,Cs1 K2 As1 Br6,2.9226,225
4580,K2 In1 Bi1 F6,2.1197,225
4581,K2 Ti1 Hg1 F6,2.1077,225
4582,Cs2 Na1 Ta1 I6,0.0,225
4583,Cs2 Li1 Nb1 F6,0.0,225
4584,Cs2 Ga1 Cu1 Cl6,0.0,225
4585,Tb1 Na2 Li1 Cl6,3.9571,225
4586,Rb2 Sm1 Au1 Cl6,2.1101,225
4587,Na2 Li1 Dy1 Cl6,3.9711,225
4588,Na2 Li1 Er1 Cl6,3.9977,225
4589,Rb2 Na1 Au1 Br6,0.0,225
4590,Mg4 Cr4 O8,1.3697,11
4591,Na2 Fe4 O7,1.4173,162
4592,Br32,1.4298000000000002,70
4593,Ti1 Au1,0.0,221
4594,W8,0.0,223
4595,Cu1 Pb2 O2 F2,0.0,139
4596,Lu1 Pb2,0.0,139
4597,Sr1 La7 Ti4 Cu4 O22,0.0,6
4598,Li8 Mn2 Co4 O14,0.0,8
4599,Li8 Mn2 Co4 O14,0.0,8
4600,Li8 Mn2 Co4 O14,0.06700000000000017,2
4601,Li8 Mn2 Co4 O14,0.05420000000000025,2
4602,Li8 Mn2 Co4 O14,0.08899999999999997,2
4603,Li8 Mn2 Co4 O14,0.0,2
4604,Li8 Mn2 Co4 O14,0.09730000000000016,2
4605,Li8 Mn2 Co4 O14,0.019000000000000128,2
4606,Li8 Mn2 Co4 O14,0.11240000000000006,2
4607,Li8 Mn2 Co4 O14,0.16649999999999965,2
4608,Li8 Mn2 Co4 O14,0.16880000000000006,2
4609,Li8 Mn2 Co4 O14,0.10200000000000031,2
4610,Li8 Mn2 Co4 O14,0.2775000000000003,12
4611,Li8 Mn2 Co4 O14,0.0,12
4612,Li8 Mn2 Co4 O14,0.0,12
4613,Li8 Mn2 Co4 O14,0.07240000000000002,1
4614,Li8 Mn2 Co4 O14,0.1604000000000001,1
4615,Li8 Mn2 Co4 O14,0.039899999999999824,1
4616,Li8 Mn2 Co4 O14,0.2120000000000002,1
4617,Li8 Mn2 Co4 O14,0.0,8
4618,Li8 Mn2 Co4 O14,0.0,8
4619,Li8 Mn2 Co4 O14,0.0,8
4620,Li8 Mn2 Co4 O14,0.0,8
4621,Li8 Mn2 Co4 O14,0.0,8
4622,Li8 Mn2 Co4 O14,0.0,8
4623,Li7 Mn2 Co3 O12,0.0,8
4624,Li7 Mn2 Co3 O12,0.0,8
4625,Li7 Mn2 Co3 O12,0.0,8
4626,Li7 Mn2 Co3 O12,0.0,6
4627,Li7 Mn2 Co3 O12,0.0,8
4628,Li7 Mn2 Co3 O12,0.0,6
4629,Li7 Mn2 Co3 O12,0.0,6
4630,Li9 Mn2 Co5 O16,0.0,2
4631,Li9 Mn2 Co5 O16,0.0484,2
4632,Li9 Mn2 Co5 O16,0.08550000000000013,2
4633,Li9 Mn2 Co5 O16,0.0,2
4634,Li9 Mn2 Co5 O16,0.0,2
4635,Li9 Mn2 Co5 O16,0.0,2
4636,Li9 Mn2 Co5 O16,0.05320000000000036,2
4637,Li9 Mn2 Co5 O16,0.0,2
4638,Li9 Mn2 Co5 O16,0.0,2
4639,Li9 Mn2 Co5 O16,0.0,2
4640,Li9 Mn2 Co5 O16,0.0,1
4641,Li9 Mn2 Co5 O16,0.040200000000000014,1
4642,Li9 Mn2 Co5 O16,0.1424000000000003,1
4643,Li9 Mn2 Co5 O16,0.0,1
4644,Li9 Mn2 Co5 O16,0.0,1
4645,Li9 Mn2 Co5 O16,0.0118999999999998,1
4646,Li9 Mn2 Co5 O16,0.1008,1
4647,Li9 Mn2 Co5 O16,0.0,1
4648,Li9 Mn2 Co5 O16,0.11119999999999974,1
4649,Li9 Mn2 Co5 O16,0.11770000000000014,1
4650,Li9 Mn2 Co5 O16,0.10159999999999991,1
4651,Li9 Mn2 Co5 O16,0.16469999999999985,1
4652,Li9 Mn2 Co5 O16,0.015499999999999847,1
4653,Li9 Mn2 Co5 O16,0.09800000000000031,1
4654,Li9 Mn2 Co5 O16,0.0,1
4655,Li9 Mn2 Co5 O16,0.09089999999999998,1
4656,Li9 Mn2 Co5 O16,0.08899999999999997,1
4657,Li9 Mn2 Co5 O16,0.0,1
4658,Li9 Mn2 Co5 O16,0.14559999999999995,1
4659,Li9 Mn2 Co5 O16,0.0,1
4660,Li9 Mn2 Co5 O16,0.0,1
4661,Li9 Mn2 Co5 O16,0.1080000000000001,1
4662,Li9 Mn2 Co5 O16,0.0,1
4663,Li9 Mn2 Co5 O16,0.0,1
4664,Li9 Mn2 Co5 O16,0.0,1
4665,Li9 Mn2 Co5 O16,0.04919999999999991,1
4666,Li9 Mn2 Co5 O16,0.0,1
4667,Li9 Mn2 Co5 O16,0.008899999999999686,1
4668,Li9 Mn2 Co5 O16,0.13680000000000003,1
4669,Li9 Mn2 Co5 O16,0.10519999999999996,1
4670,Li9 Mn2 Co5 O16,0.0,1
4671,Li9 Mn2 Co5 O16,0.18089999999999984,1
4672,Li9 Mn2 Co5 O16,0.25249999999999995,1
4673,Li9 Mn2 Co5 O16,0.0,1
4674,Li2 Mn2 Co2 O8,0.20730000000000004,2
4675,Li6 Fe8 P16 O56,0.021300000000000097,1
4676,Li3 Co4 O8,0.0,1
4677,Fe10 O16 F4,0.0,2
4678,Fe6 O10 F2,0.0,1
4679,Cu4 Ni2 O8,0.15859999999999985,15
4680,Cr1 Sb2 O6,0.09079999999999977,12
4681,Al2 Pd2 O6,0.0,164
4682,Si2 H24 N4 O8 F12,6.0652,15
4683,Pr4 Y4 Si8 O28,4.4793,14
4684,P8 H24 O24,4.3717,4
4685,Na8 P8 O28,0.3294,14
4686,K1 Cu3 Si1 Se4,1.0040999999999998,215
4687,Fe12 O16,0.16299999999999937,7
4688,Cu6 As8,0.0,71
4689,Ca1 Sc1 Cu3 Se4,1.2259000000000002,215
4690,Cd2 P2 N2 O10,2.4112,31
4691,Ca8 Al8 H40,3.2034,14
4692,Cs4 Nb12 P12 O60,0.0,58
4693,K8 Fe8 P8 O28 F8,3.2713,60
4694,Ac3 Au1,0.0,221
4695,Ac2 Sc6,0.0,194
4696,Co3 Ir1,0.0,221
4697,Dy3 Bi1,0.0,221
4698,Er2 Bi6,0.0,194
4699,Ho2 In1 Os1,0.0,225
4700,Hf2 H6,0.0,164
4701,K1 Bi3,0.0,221
4702,K1 Cd3,0.0,225
4703,K3 In1,0.0,225
4704,K1 Ba3,0.0,225
4705,Li3 Eu1,0.0,225
4706,Li1 Ce2 Ga1,0.0,225
4707,Cs3 Hg1,0.0,221
4708,Mg16 Al12 Br1,0.0,217
4709,Mg16 Al12 I1,0.0,1
4710,Mg2 Bi6,0.0,194
4711,Mg16 Al12 S1,0.0,160