Index,Composition,bandgap,spgN
20842,Ba2 La2 I10,2.6608,15
20843,Li6 Si6 Bi6 O24,3.2515,148
20844,Tl4 Ga4 O12,0.2334000000000005,62
20845,K7 Bi9 O24,0.0,12
20846,Mg12 Cu30 O42,0.0,25
20847,Si4 Cr4,0.0,198
20848,Li3 Ti1 P2 O8,0.14219999999999988,1
20849,Li2 Ti2 P8 O24,0.2269000000000001,4
20850,H16 Ru3 C6 Cl6 O14,0.5832999999999999,2
20851,Na6 H12 C12 N18 O6,3.7863,190
20852,Li2 Ag4 F8,0.0,88
20853,P8 H4 N4 F16,4.8761,14
20854,Li4 Ag2 F6,1.8653,63
20855,Li4 Cu4 P12 O36,0.6513999999999998,19
20856,Sb16 O16 F16,3.0221999999999998,61
20857,Li24 Ag12 F40,0.07679999999999998,33
20858,Cu16 O8 F16,0.0484,1
20859,Na3 Ti12 O24,0.0,1
20860,Li4 Ag2 F8,0.0,1
20861,Li4 Mn4 Si8 O22,3.3347,2
20862,Li4 Fe4 Si12 O32,3.1816,19
20863,Li8 Fe2 P12 O36,4.220700000000001,15
20864,Li9 Cr3 P6 O24,2.8493999999999993,147
20865,Li2 Fe2 Si6 O16,2.4135,2
20866,Li14 Fe4 P14 O48,2.5575,13
20867,Li4 Ni4 P4 O16,3.3324,2
20868,Li12 Fe12 Si12 O48,2.7333,3
20869,Li2 Mn2 P2 O8,3.3281000000000005,1
20870,Li4 Fe4 Si4 O16,2.6029,33
20871,Li4 Ni4 P8 O28,0.0,14
20872,Li2 V1 Si6 O15,2.2264,2
20873,Li4 Co2 P4 O14,3.2618,113
20874,Ti5 Fe11 O24,1.0304000000000002,1
20875,Li2 Co2 P2 O8,2.7611999999999997,148
20876,Li24 Co24 P24 O96,0.0618000000000003,170
20877,Li8 Co8 P8 O32,2.8085999999999998,33
20878,Li4 Ti2 Nb3 V3 O16,0.2107000000000001,8
20879,Li4 Ni4 P4 O16,3.1685000000000003,7
20880,Li3 Ti1 Mn2 O6,0.0,12
20881,Li4 Ni4 P4 O16,3.3519,33
20882,Li2 V3 O6,0.4040999999999997,12
20883,Li4 Mn6 O12,0.7098,9
20884,Li14 Cu9 P16 O56,0.29380000000000006,2
20885,Li4 Cr6 O12,0.5545999999999998,9
20886,Li2 Fe2 P8 O24,2.2278000000000002,4
20887,Li4 Fe6 P10 O36,1.9506999999999999,1
20888,Li2 Fe8 P6 O24,2.9844999999999997,1
20889,Li4 Fe4 P16 O48,2.2948,14
20890,Li3 Nb1 Ni3 O8,0.25160000000000027,12
20891,Li4 Ti3 Ni3 O12,0.05080000000000018,1
20892,Li8 Fe8 Si8 O32,2.1635999999999997,14
20893,Li2 Ti2 Fe3 O10,0.23299999999999987,2
20894,Li14 Mn2 P8 O28 F2,3.9907000000000004,9
20895,Li12 V4 F20,2.3684000000000003,62
20896,Li4 Mn4 P16 O48,1.3659999999999999,14
20897,Fe4 O1 F7,0.7312999999999998,38
20898,Fe8 O2 F14,0.8003,63
20899,Fe8 O6 F10,1.5083000000000002,63
20900,Li4 Mn2 F8,3.5855,26
20901,Li14 Mn14 F42,3.3597,2
20902,Fe12 O12 F12,0.3927999999999998,6
20903,Fe16 O16 F16,1.2819,2
20904,Fe16 O16 F16,1.5710999999999997,2
20905,Mn4 O4 F4,0.0,33
20906,Fe6 O6 F6,0.7429999999999999,6
20907,Ni6 O2 F10,0.8414,31
20908,Li1 Mn2 B2 O6,0.7656999999999998,1
20909,Li4 Mn5 Cr1 P6 O24,0.2285999999999997,1
20910,Li4 V2 O4 F2,0.3455999999999997,63
20911,Li4 Co4 Si4 O14,2.3439,40
20912,Li8 Co8 Si12 O36,2.652,14
20913,Cu18 As6,0.0,165
20914,Li6 V6 P8 O32,1.8506999999999998,4
20915,Li3 Mn8 O4 F12,0.0,12
20916,Li2 Ni2 C4 O12,1.0949,4
20917,Mn4 V2 O8,0.0,160
20918,Li4 V4 P8 O28,2.1716999999999995,14
20919,Li2 V2 P6 O18,2.588,188
20920,Li2 V4 P10 O32,2.1233999999999997,7
20921,Li10 V2 P8 O28,2.6612000000000005,2
20922,Li4 Ti3 Mn3 Sb2 O16,0.025100000000000122,1
20923,Li1 Mn7 O12,0.41080000000000005,5
20924,Li4 Mn5 O10,0.6966000000000001,1
20925,Li1 Mn2 C4 O12,1.1952,1
20926,Li2 Mn20 P14 O56,3.0144,161
20927,Li4 V3 Fe2 O10,1.3158000000000003,1
20928,Mn2 P8 O24,0.16149999999999998,14
20929,Ni6 O2 F10,0.8173999999999999,4
20930,Li4 Ti3 Fe2 Ni3 O16,0.0,8
20931,Li4 Co3 O1 F8,1.9489000000000003,1
20932,Li6 V2 Fe6 O16,1.2155999999999998,1
20933,Mn12 O10 F14,0.0,7
20934,Na4 V2 O6,1.7774999999999999,12
20935,Mn12 O17 F7,0.0,1
20936,Li3 Co2 Cu3 O10,0.0,2
20937,Mn4 O2 F4,1.1644,9
20938,Li4 Mn12 O4 F20,1.7959000000000003,9
20939,Li4 Cr2 Ni3 Sb3 O16,0.05250000000000021,8
20940,Li9 V6 O12 F6,0.9366000000000001,1
20941,Li9 V6 O12 F6,0.9198999999999999,6
20942,Li9 V6 O12 F6,0.9480999999999999,1
20943,Li9 V6 O12 F6,0.9313,1
20944,Li2 Fe4 B4 O12,1.1301,1
20945,Li3 Fe8 B8 O24,1.5066000000000002,1
20946,Li4 Fe3 O2 F6,3.2956,2
20947,Li2 Fe8 B8 O24,1.7979,1
20948,Li2 Fe8 B8 O24,1.5443,1
20949,Na48 Ti6 O36,2.0299,185
20950,Li3 Fe8 B8 O24,1.6402,1
20951,Li6 Mn1 F8,4.5332,225
20952,Li2 Mn4 O2 F6,1.8555000000000001,164
20953,Li3 Fe8 B8 O24,1.6373,1
20954,Li2 Mn4 O2 F6,1.4871000000000003,160
20955,Na4 Fe1 O5,0.0,87
20956,Li8 Fe1 O4 F2,2.9017999999999997,2
20957,Li3 Fe8 B8 O24,1.566,1
20958,Li3 Fe8 B8 O24,1.5276,1
20959,Li10 Fe2 Ni6 O16,0.0,1
20960,Li2 Ti2 P8 O24,0.18540000000000045,15
20961,Li8 V4 C8 O24,2.5998,43
20962,Fe18 O18 F18,0.0,6
20963,Li6 V6 F24,1.9744,1
20964,Li16 Mn15 Cu3 O36,0.3174000000000001,1
20965,Li13 Mn3 Sb2 O16,1.1465,8
20966,Li4 Mn5 Co1 P6 O24,0.4293999999999998,1
20967,V3 O4 F2,1.2187000000000001,1
20968,Ni6 O2 F10,0.5531,31
20969,Li4 Ti3 Cr3 Te2 O16,0.31730000000000036,8
20970,Li2 V2 F10,1.7843,15
20971,Li2 Cr1 Co1 O4,0.010699999999999932,10
20972,Li3 Mn3 Co1 O8,0.0,166
20973,Zn2 Co2 O6,0.0,148
20974,Li4 Ni3 Sn1 P4 O16,1.9586999999999994,6
20975,Li4 Mn8 O2 F16,2.0591,1
20976,Li4 Mn2 O4 F2,0.0,63
20977,Li2 Mn4 O3 F8,0.0383,2
20978,Li3 Fe8 B8 O24,1.4476,1
20979,Sn16 N16 O8,0.5638000000000005,1
20980,K8 Li14 Mn4 O16,0.12290000000000001,1
20981,Ba4 Ca4 I16,3.3672,14
20982,Ba4 Ca4 I16,3.5357000000000003,14
20983,Li12 Bi4 S16,1.6645,62
20984,Li2 Cu2 S4,0.5744000000000002,58
20985,Li32 Ti8 S32,2.372,218
20986,Li1 Co15 O16,0.0,2
20987,Li8 Ni4 P8 O28,2.4722999999999997,15
20988,Mn5 O9 F1,0.6072,1
20989,Li3 Mn3 O3 F5,0.5356000000000001,8
20990,Fe8 O2 F12,2.3076,137
20991,Li4 V2 Ni2 O8,1.6752999999999996,15
20992,Li2 Mn4 O7 F1,0.0,1
20993,Li4 V4 Si4 O16,2.6306999999999996,33
20994,Li3 Ti1 V3 O8,0.9294999999999995,1
20995,Li2 Mn6 O2 F10,1.8939000000000001,1
20996,Li4 Ti2 Fe3 Sb3 O16,0.0,8
20997,Li6 Cr1 Ni1 P2 C2 O14,1.8454999999999995,6
20998,Mn21 Sn9 O40,0.0034000000000000696,82
20999,Li1 Mn5 Cu2 O12,0.15409999999999968,5
21000,Bi12 P4 O30,0.0,37
21001,Co4 P8 O28,0.0,14
21002,Li4 V2 Si8 O20,1.5854999999999997,2
21003,Li4 V4 P4 O20,1.2921,14
21004,Li8 Mn4 Fe2 B8 O24,0.8523000000000001,7
21005,Li3 Mn1 Fe3 O8,0.3240000000000003,2
21006,Li4 V2 F12,2.1057,9
21007,Li6 V10 O20,0.6398999999999999,15
21008,Li8 Fe4 P4 O20,2.1455,7
21009,Li4 V4 C4 O12 F8,2.0703,62
21010,Li12 Co4 P4 C4 O28,2.8741000000000003,14
21011,Li8 Ti10 Mn8 O36,0.9356,55
21012,Li2 Nb2 Fe3 O10,1.5600999999999998,1
21013,Li4 V4 F14,0.7864000000000001,2
21014,Li4 Fe2 Si6 O16,3.0810000000000004,4
21015,Li4 Ni2 P4 O14,2.5113000000000003,74
21016,Li3 V3 C6 O18,1.9665,5
21017,Li2 Fe1 Ni3 O8,0.0,2
21018,Li4 Ni4 P4 O16,3.3747,2
21019,Li4 Cr2 C4 O12,3.381,1
21020,Co3 Sb1 P4 O16,0.13670000000000027,6
21021,Zn3 Ni7 O10,1.7523,166
21022,Na2 Bi2 P2 C2 O14,0.0,4
21023,Li24 V8 S32,1.3336,114
21024,Li8 B4 O10,4.8277,2
21025,Mg8 Te12 O36,1.7748,14
21026,Na2 Bi2 As2 C2 O14,0.0,4
21027,Li8 Cu8 P8 O32,0.0259999999999998,61
21028,Li8 Ti4 Mn14 O36,0.0,10
21029,Li8 Ti2 Mn16 O36,0.0,6
21030,Sc4 Fe4 O12,1.5712000000000002,14
21031,Li3 V3 B3 O9,1.7401000000000004,174
21032,Sr4 Cr4 O12,0.7904,1
21033,Li4 Mn4 B4 O16,0.2639,62
21034,Na4 Mn2 B2 P2 O14,0.25329999999999997,11
21035,Na1 V1 O2,1.4045,12
21036,Li2 Fe4 O8,0.0,160
21037,Li2 Cr2 As2 C2 O14,0.9972,4
21038,Zn4 In8 O16,0.6364999999999998,62
21039,Rb4 Fe12 O20,1.6244999999999998,6
21040,Na12 Si2 Ni4 C8 O32,0.0,203
21041,Li2 Ti1 Co3 P6 O24,0.0,146
21042,Li5 Cr1 O5,1.2635,1
21043,Li36 Mn8 Al4 O32,2.1143,62
21044,Li12 Mn4 Al8 O24,2.1234,14
21045,Li12 Al4 Fe4 O20,0.20579999999999998,33
21046,Na12 Mn4 B8 As2 O32,0.0,203
21047,Li8 V4 B4 O16,1.8957,14
21048,Li12 Fe4 O12,2.2955,14
21049,Li8 Ni4 B4 O16,1.2049,33
21050,Li3 Co4 Ni1 O8,0.0,12
21051,Li6 Mn2 B8 O18,0.7447999999999999,11
21052,Li4 Fe1 Co5 O12,0.28100000000000014,1
21053,V6 B6 O24,2.6343,2
21054,Li12 Fe4 B8 O24,2.0792,14
21055,Li6 Co2 Si2 C2 O14,1.1529,11
21056,Li4 Mn3 Te1 O12,0.0,3
21057,Ni1 Te4 O12,0.24929999999999986,1
21058,Mn4 Cu1 O8,0.0,12
21059,Li5 Fe2 Cu3 O10,0.0,2
21060,Li4 Fe3 Co1 O8,1.2034000000000002,1
21061,Mn5 Sn1 O12,1.4667999999999999,12
21062,Mn3 Co3 P6 O24,0.0,146
21063,Fe1 Co5 O12,0.0,12
21064,Li2 Nb2 Ni2 O8,1.6159999999999997,74
21065,Li4 Cr4 O14,1.1657,1
21066,Li6 Fe1 O6,0.0,2
21067,Li8 Co8 P8 O32,2.8127000000000004,14
21068,Y4 W4 O18,3.1880999999999995,2
21069,Cd4 Fe8 O16,1.7144000000000004,62
21070,Cr4 P8 O24,2.3932,9
21071,Ba6 Li2 Ti7 Sb9 O42,0.0,8
21072,K6 Nb12 O30,0.0,7
21073,La4 Bi2 O10,0.8297999999999996,1
21074,Ba8 La8 Cl40,3.9903,14
21075,Li4 Mn5 V3 O16,0.6164999999999998,1
21076,Gd4 W8 O30,2.8721,2
21077,Li4 Co4 B8 O20,1.162,15
21078,Mn1 Co4 O8,0.0,2
21079,Li12 Fe12 P12 O48,3.045,181
21080,Li3 V1 Fe2 O6,0.0,12
21081,Li4 Mn4 F12,3.3287999999999998,14
21082,Fe8 O2 F14,0.8366,15
21083,Li12 Fe12 P12 O48,3.6117999999999997,14
21084,Mn8 O14 F2,0.0,9
21085,Li4 Ti2 Mn3 Sn3 O16,0.0,1
21086,Mn7 Cr12 O48,0.2509,1
21087,Li2 Sb2 P4 O16,1.7854999999999999,11
21088,W2 Br4 O4,0.8926999999999999,26
21089,Na6 Fe2 B2 S2 O14,2.6907000000000005,11
21090,Mn12 O7 F17,0.0,1
21091,Ni6 O2 F10,0.6995999999999999,8
21092,Mn3 Fe1 P6 O24,0.0,146
21093,Li8 Cr8 P8 O32,2.5125999999999995,33
21094,Li1 Ca2 Ta3 O10,2.1736,119
21095,Li40 Bi8 S32,1.2581000000000002,137
21096,Nb2 Cu2 P4 O16,0.3009999999999997,11
21097,Li12 Mn4 V4 P12 O48,0.1180000000000001,5
21098,Li2 Cr3 Ni1 O8,0.7266999999999997,160
21099,Li3 V4 Sn1 O12,1.3980000000000006,1
21100,Li7 Fe3 Co1 P6 O24,0.0,146
21101,Li4 Fe1 Te2 W1 O12,0.0,1
21102,Li1 Fe8 B8 O24,1.3581000000000003,1
21103,Li2 Mn1 Cu1 O4,0.0,119
21104,Li8 Ti4 Co6 O20,0.6943000000000001,2
21105,Li4 V3 O8,1.723,148
21106,Li4 Mn4 Ni2 P6 O24,0.6233,5
21107,Li9 Mn15 Co6 O36,0.058000000000000274,5
21108,Li4 Mn1 W3 O12,0.0,1
21109,Li12 Mn4 V4 P12 O48,0.0,7
21110,Li4 V3 Co3 Sn2 O16,0.6893000000000002,1
21111,Li40 Sb8 S32,1.5475,61
21112,Li8 Sb8 P8 O40,1.5947999999999998,1
21113,Li16 Sb14 S38,0.0,15
21114,Hf2 Sn2 O6,2.3676000000000004,148
21115,Ag12 Ir4 O16,0.0,91
21116,Mn2 Ag2 O6,0.0,148
21117,Ce4 Fe4 O12,0.6735999999999995,62
21118,Ca2 Ti6 N2 O11,2.2672000000000003,1
21119,Li2 Ti1 V3 O8,0.6088,8
21120,Li2 Fe2 F8,3.5553,2
21121,Be4 Cr4 O16,2.0972999999999997,12
21122,Li4 Fe3 Co3 W2 O16,0.5912999999999999,1
21123,Li1 Fe5 O3 F5,1.6707,8
21124,Li4 Ti3 V2 Ni3 O16,1.6363000000000003,8
21125,Li4 Fe4 F16,3.3866,19
21126,Li4 Mn5 Fe1 P6 O24,0.2601,1
21127,V5 Fe1 O12,0.0,5
21128,Ge4 N4 O2,2.3193,9
21129,Li5 V6 O5 F19,0.803,1
21130,Mn6 O6 F6,0.0,2
21131,Na32 Co8 O32,1.2982,7
21132,Ag4 H56 O32,0.0,14
21133,Li4 V2 O4 F2,1.7347000000000001,5
21134,Ho4 As4 O16,3.6677999999999997,14
21135,Fe10 O11 F9,0.3198000000000001,6
21136,Ba2 Y6 F22,5.8515,51
21137,Li6 Mn12 B12 O36,0.5676999999999999,9
21138,Li6 Mn12 B12 O36,0.389,1
21139,Li4 Fe8 F20,2.9965,15
21140,Li6 Fe4 Si4 O16,1.9231999999999998,7
21141,V3 Sn1 O8,0.8160000000000003,8
21142,Mn7 Sn1 P12 O48,0.0014000000000000679,1
21143,Fe10 O11 F9,0.2794000000000001,1
21144,Fe6 O7 F5,0.3117000000000001,5
21145,Fe10 O11 F9,0.2845,1
21146,Na8 Bi4 B8 S2 O32,0.07789999999999997,70
21147,Nb4 B20 O40,3.3055,14
21148,Li12 Mn4 V4 P12 O48,0.21039999999999992,1
21149,Ga6 N2 O6,0.0009000000000001229,176
21150,Mn6 O7 F5,0.0,1
21151,Cu3 Sb1 P4 O16,0.0021999999999997577,6
21152,Li12 Mn4 Si8 O28,1.4716999999999998,62
21153,Fe8 O4 F12,1.3708,5
21154,Li4 Mn2 C2 S2 O14,4.0493999999999994,11
21155,Li4 Mn4 P4 H8 O20,3.3236000000000003,33
21156,Ni6 O2 F10,0.6993,1
21157,Mn8 O12 F4,0.0,12
21158,Li8 Sb8 P16 O56,3.6412000000000004,33
21159,Mn6 O7 F5,0.0,1
21160,Mn12 O10 F14,0.0,1
21161,Mn10 O5 F15,0.011200000000000099,1
21162,Li20 Fe4 O16,2.764,58
21163,Mn8 O13 F3,0.0,1
21164,Li8 Fe4 C8 S2 O32,1.5539,70
21165,Li2 Mn4 B4 O12,0.017800000000000038,2
21166,Li6 Ti4 P6 O24,0.010600000000000165,1
21167,As16 H96 C32 S28 N8,2.4276,14
21168,Li2 Fe3 Cu1 O8,0.0,2
21169,Li1 Fe5 O4 F8,1.6634,1
21170,Ti1 Mn1 V4 O12,0.6605999999999999,5
21171,Ni6 O2 F10,0.5230999999999999,10
21172,Mn3 Cu2 Sn1 P6 O24,0.0,146
21173,Nb1 Cr2 Fe3 P6 O24,0.0,146
21174,O3 Ti1 La1,0.0,221
21175,Li12 Fe12 W8 O48,2.298,14
21176,Li4 Mn4 P4 H24 O30,1.2564,1
21177,Li6 Mn9 B9 O27,0.0,1
21178,Mn12 O7 F17,0.0,1
21179,V4 O7 F5,0.6340999999999999,3
21180,Li2 Fe8 B8 O24,1.7270999999999999,7
21181,Li2 Fe8 B8 O24,1.6524,1
21182,Li2 Fe8 B8 O24,1.6864,1
21183,Li2 V3 Cr1 O8,1.4501999999999997,8
21184,Li4 Mn4 P8 O28,1.6377,14
21185,Li4 Ni2 P4 H3 O16,0.0,1
21186,Li8 Mn4 Si16 O40,3.4758999999999993,14
21187,Li3 Fe9 O5 F11,1.9446999999999999,1
21188,Li7 Mn1 P4 O16,0.0,6
21189,Li8 Mn8 P16 O56,0.43989999999999996,1
21190,Li8 Mn8 P16 O56,0.2299,1
21191,Li3 Cr1 Co3 O8,0.0,166
21192,Mn12 O7 F17,0.0,1
21193,Mn8 O13 F3,0.0,1
21194,Li4 V2 O2 F6,1.6824000000000001,1
21195,Mn8 O13 F3,0.0,1
21196,Li3 Fe2 Si2 O8,1.854,1
21197,Li4 Mn8 B8 O24,0.0,2
21198,Li4 Fe4 P4 H8 O20,3.1635,33
21199,Fe6 O6 F6,1.1296,6
21200,Li6 Mn6 P6 O24,3.4086999999999996,173
21201,Co3 Ni3 Te2 O16,0.16469999999999985,1
21202,Li9 Mn5 Si2 O16,1.1536000000000004,2
21203,Li4 Mn4 P4 O16,3.0148999999999995,33
21204,Li12 Mn1 V3 P4 C4 O28,2.7205,6
21205,Sc2 Tc1 Hg1,0.0,225
21206,Pa2 P6,0.0,194
21207,Li4 Cu4 F14,0.0,227
21208,Li12 Si12 Bi12 O48,3.0357000000000003,14
21209,Tc1,0.0,225
21210,Li8 V4 F20,3.0374,33
21211,Li12 V6 Si12 O36,1.6437,31
21212,Tm2 Hg1 Os1,0.0,225
21213,Tm2 Mn1 Os1,0.0,225
21214,Li2 Fe1 P2 S6,0.0,1
21215,La2 Pd1 Ru1,0.0,225
21216,Rb3 Na1,0.0,225
21217,Sm1 Lu1 Ru2,0.0,225
21218,Sm1 Dy1 Ru2,0.0,225
21219,Th3 Mg1,0.0,221
21220,Yb1 Sm3,0.0,139
21221,Cs2 Na1 Ca1 Cl6,0.0,225
21222,Cu2 O4 F2,0.7835000000000001,20
21223,Ti2 Ni2,0.0,59
21224,Mn1 Si1 Ni2,0.0,225
21225,Mg4 Cu8 Mo8 O32,1.1153999999999997,14
21226,Cr4 O8,0.12249999999999994,12
21227,V2 Zn3 P4 O18,1.3341,8
21228,Y16 Cu6 Ge6 S42,0.0,4
21229,Mn4 Zn1 S8,0.0,166
21230,Ca4 Ti8 O16,0.0,62
21231,Ca3 Fe2 Mo2 O12,1.7666999999999997,1
21232,Ca3 Co2 W2 O12,0.9855999999999998,1
21233,Zn2 Sb2 F10,3.7055999999999996,1
21234,Ca5 Cu2 Ir2 O12,0.0,1
21235,Ca3 Nd4 Nb6 Fe2 O28,0.0,2
21236,Y16 Cu6 Ge6 Se42,0.0,4
21237,Sn4 O8,2.0868999999999995,8
21238,Mg2 Ti2 F10,0.21399999999999997,15
21239,Ca12 Ag8 Ge12 O48,0.0,230
21240,Mg6 Mn4 Si8 O28,1.7872999999999997,15
21241,W4 O10,0.31149999999999967,59
21242,Ca6 Sb12 O24,2.2443,1
21243,V16 Zn8 Co8 O56,1.8398,14
21244,Mg1 Cr4 Cu3 O12,0.04079999999999995,148
21245,Sn2 S4,1.865,122
21246,As1 Zr1,0.0,225
21247,Si2 Sc2 Ce2,0.0,139
21248,Mg4 Mn16 O32,0.3767999999999998,4
21249,Na1 Mg6 Cd1,0.0,38
21250,Na1 Mg6 Cd1,0.0,38
21251,Li1 Mg1 Pd1 Sb1,0.0,216
21252,K1 Ti1 S2,0.0,160
21253,Co1 Sn1 Rh2,0.0,139
21254,Li2 O4,0.0,58
21255,Sr1 Y1 Mg6,0.0,38
21256,Mg6 Al1 Ga1,0.0,38
21257,Mg6 Al1 Zn1,0.0,38
21258,Mg15 Ti1,0.0,187
21259,Na4 Zn6 Se8,1.7234,72
21260,Te2 W3 Se2 S2,0.0,156
21261,Te2 W3 Se2 S2,0.0,156
21262,Te2 W3 Se2 S2,0.0,156
21263,Mg14 Ti1 Cd1,0.0,187
21264,Hf1 Mg14 Cd1,0.0,38
21265,Mg14 Cd1 Sb1,0.0,38
21266,Hf1 Mg14 Sn1,0.0,38
21267,Mg14 Ga1 Si1,0.0,187
21268,Mg14 Cd1 Si1,0.0,187
21269,Li1 Hf1 Mg14,0.0,187
21270,Li1 La1 Mg14,0.0,187
21271,Mg14 Zr1 Zn1,0.0,187
21272,Ca1 Mg14 Zn1,0.0,187
21273,Mg14 Al1 Bi1,0.0,38
21274,Na1 Mg14 Sn1,0.0,187
21275,Te4 Mo1 W3 Se2 S2,0.0,156
21276,Rb2 Ge4 N6,1.0678,36
21277,Li1 Mg6 Al1 O8,3.9551000000000007,123
21278,Mg6 Mn1 Cd1 O8,0.7190000000000003,123
21279,Mg14 Cr1 Fe1 O16,0.0,123
21280,Na1 Y1 Mg14 O16,3.6255,123
21281,Mg14 Al1 Cu1 O16,0.7314999999999996,123
21282,Mg30 Fe1 Sn1 O32,0.0,123
21283,Mg30 Ti1 Ni1 O32,0.5821000000000005,123
21284,Mg30 Nb1 Zn1 O32,0.5577000000000005,123
21285,Mg30 Nb1 Zn1 O32,0.5438999999999998,123
21286,Y1 Mg30 Cr1 O32,0.0,123
21287,Mg30 Nb1 Fe1 O32,0.6009000000000011,123
21288,Y1 Mg30 Zn1 O32,0.0,123
21289,Y1 Mg30 Zn1 O32,0.3522999999999996,123
21290,Y1 Mg30 Fe1 O32,0.2743000000000002,123
21291,Ca1 Mg30 Sn1 O32,2.0381,123
21292,Mg30 Nb1 Cr1 O32,0.4693999999999994,123
21293,Mg30 Nb1 Cr1 O32,0.3415999999999997,123
21294,Ca8 Mg4,0.0,63
21295,Mg2 Cd4,0.0,164
21296,Ca2 Zn6,0.0,194
21297,Ca3 Mg15,0.0,155
21298,Cr2 Co2 Ge2,0.0,194
21299,Ce2 Mg10,0.0,38
21300,Rb1 Mg30 Cr1 O32,3.428,123
21301,K1 W1 O3,0.0,221
21302,Mg2 Ni4 O8,0.0,160
21303,Cr8 P8 O36,0.020399999999999974,62
21304,Ca6 V12 O24,1.2230000000000003,8
21305,Ca2 Sb4 O8,2.1616,2
21306,Mg8 Ta8 Bi8 O40,3.3202000000000003,61
21307,Zn4 Sn6 O16,1.2476000000000003,186
21308,Zn2 Cu2 Ge4 O12,0.0039000000000000146,15
21309,Ca4 Cr4 Ge8 O24,0.94,14
21310,Ca1 Cu3 Mo4 O12,0.8010999999999999,2
21311,Zn4 Cr4 Ni4 P8 O36,0.23019999999999996,1
21312,Mn6 Zn2 P8 O28,2.6424000000000003,14
21313,La2 Fe2 Re2 O12,0.0,7
21314,Zn4 Co4 Bi4 O20,0.1259999999999999,14
21315,Li2 Ti4 O8,0.0,74
21316,Li2 Ni4 S8,0.0,141
21317,Li1 Ni4 O8,0.0,12
21318,Ta4 Zn4 Cu2 O16,0.08389999999999986,1
21319,Mg8 Cu10 Te6 O36,0.0,5
21320,Ba2 Ca2 Tl2 Co3 O10,0.0,1
21321,Mn1 Zn2 W1 O6,2.1513,1
21322,Ta2 Al2 W4 O16,1.8681999999999999,13
21323,Sn1,0.0,71
21324,Zr2 Br2,0.0,164
21325,Bi4,0.0,11
21326,Ca2 Ag2 Bi2,0.0,194
21327,Sr5 Ca3 Ti1 Mn7 O24,0.0,8
21328,Ba3 Sr5 Co4 Cu4 O24,0.0,8
21329,Sr4 Ca4 Mn5 Fe3 O24,0.0,1
21330,Ba2 Sr6 Co4 Cu4 O24,0.0,35
21331,Sr3 Ca5 Fe4 Co4 O24,0.0,8
21332,Sr4 Ca4 Fe3 Co5 O24,0.0,1
21333,Sr8 Ca24 Mn20 Fe12 O80,0.0,1
21334,La28 Sm4 Co24 Cu8 O80,0.0,1
21335,Yb2 Al2 Ga2,0.0,194
21336,Sr4 Ca28 Mn24 Fe8 O80,0.0,1
21337,Cs4 S2,2.0647,194
21338,Fe2 Co1 Se4,0.0,12
21339,K2 Se6,0.38549999999999995,5
21340,Ce8 Se16,0.5547999999999997,61
21341,Dy2 Fe2 Ge4,0.0,63
21342,K2 Al2 O4,2.9327,227
21343,P10,1.2503000000000002,6
21344,Mg5 Sn1,0.0,189
21345,Mg2 Sn4,0.0,194
21346,Zr5 Sn1,0.0,189
21347,Mg4 Ti8,0.0,12
21348,Mg8 Zn4,0.0,38
21349,Mg3 Zr3,0.18279999999999985,166
21350,Mg10 Sn2,0.0,8
21351,Mg4 Ga2,0.0,189
21352,Mg1 Zr1,0.0,187
21353,Y2 Fe2 Ge4,0.0,63
21354,Rb3 Na1 H4,1.5303,221
21355,Ba1 Re1 H9,3.1455,155
21356,Mg30 Cr1 Sn1 O32,1.6078999999999999,123
21357,Mg30 Cr1 Sn1 O32,1.9355000000000002,123
21358,Ba3 Sn1 S4,1.0865999999999998,221
21359,Ba4 Sr28 Ti32 O80,0.0,1
21360,Y2 Mg10,0.0,8
21361,Zn12 Mo12 O32,0.8180999999999998,12
21362,Ti20 Se19,0.0,1
21363,Ti1 V3 Sb2 P6 O24,0.012399999999999967,146
21364,Sc2 Cr2 O8,0.21330000000000027,74
21365,Mn24 P4 O48,0.0,142
21366,Fe4 P12 O36,1.8341999999999998,2
21367,Pr16 Hf16 O64,0.10680000000000023,198
21368,Ba2 Fe4 Se6,0.0,63
21369,Hf8 Fe2 P2,0.0,124
21370,La1 Ta2 Cu1 Cl1 O7,0.0,123
21371,Hg4 Cl8,3.5137,62
21372,Er6 Fe2 Ge6,0.0,63
21373,Nb5 Sn1 Se8,0.0,12
21374,Tm1 Mo6 Se8,0.0,148
21375,H2 S4 N2 O8 F4,5.864,4
21376,Yb12 Co4,0.0,62
21377,Fe9 Se8,0.0,99
21378,Rb2 Nd1 Cu1 Br6,2.1245000000000003,225
21379,Rb3 Sb1 Br6,2.8419999999999996,225
21380,Cs1 Rb2 Tm1 Cl6,4.4442,225
21381,Rb2 Pr1 Ag1 I6,2.5438,225
21382,K2 In2 Br6,0.6499,225
21383,Rb2 Hg1 Bi1 I6,0.0,225
21384,K2 Y1 Tl1 Br6,3.4148,225
21385,K2 Tl1 Sb1 Cl6,1.541,225
21386,Cs1 Rb2 Sb1 F6,3.3524000000000003,225
21387,K3 Er1 Cl6,4.5753,225
21388,K2 Li1 Ce1 I6,0.2547999999999999,225
21389,Cs1 Rb2 Er1 Cl6,4.4376999999999995,225
21390,Rb2 Sb1 Au1 I6,0.0,225
21391,Rb2 Ce1 Ag1 F6,0.0,225
21392,K2 Hg1 Sb1 Br6,0.0,225
21393,K2 Bi1 Au1 Cl6,0.9146000000000001,225
21394,Cs2 Hg1 As1 Cl6,0.0,225
21395,Cs3 Bi1 I6,2.8318000000000003,225
21396,Rb2 Sc1 Hg1 I6,0.0,225
21397,Cs2 Ga1 Ag1 Cl6,1.0187,225
21398,Rb2 Li1 Au1 F6,0.4775,225
21399,Rb2 Ga1 Hg1 F6,0.0,225
21400,K1 Cu2 Ge1 S4,0.0,121
21401,Li4 Mn2 P2 O8 F2,3.7262,1
21402,Sr3 La3 V3 Fe3 O18,0.0,119
21403,Sr1 La7 Zn1 Cu3 O16,0.13930000000000042,1
21404,Pr4 S4 O4,1.9379999999999997,14
21405,Sm2 H64 C16 I6 N32 O16,1.5149,1
21406,Li4 Mn2 Co2 O8,0.0018000000000002458,2
21407,Li4 Mn2 Co2 O8,0.0,2
21408,Li4 Mn2 Co2 O8,0.0,11
21409,Li3 Mn1 Co2 O6,0.41810000000000036,2
21410,Li4 Mn2 O6,0.6976999999999998,2
21411,Li5 Co3 O8,0.25680000000000014,2
21412,Li8 Co6 O14,0.7601,2
21413,Li4 Mn1 Co3 O8,0.7112000000000003,10
21414,Li8 Co6 O14,0.7060999999999997,2
21415,Li6 Mn3 Co1 O10,0.0,8
21416,Li8 Co6 O14,0.0,12
21417,Li6 Mn3 Co1 O10,0.4321999999999999,8
21418,Li8 Mn2 Co4 O14,0.7343999999999999,2
21419,Li7 Mn2 Co3 O12,0.7382,2
21420,Li7 Mn2 Co3 O12,0.9122000000000003,2
21421,Li7 Mn2 Co3 O12,0.7173000000000003,2
21422,Li7 Mn2 Co3 O12,0.5792000000000002,2
21423,Li8 Mn2 Co4 O14,0.7018,12
21424,Li8 Mn2 Co4 O14,1.0179,1
21425,Li8 Mn2 Co4 O14,0.8632,1
21426,Li6 Mn3 Co1 O10,0.31820000000000004,1
21427,Li7 Mn2 Co3 O12,0.9331999999999998,1
21428,Li7 Mn2 Co3 O12,0.6490999999999998,1
21429,Li7 Mn2 Co3 O12,0.9342000000000001,1
21430,Li7 Mn2 Co3 O12,0.9218000000000002,1
21431,Li7 Mn2 Co3 O12,0.9912999999999998,1
21432,Li7 Mn2 Co3 O12,0.8714,3
21433,Li7 Mn2 Co3 O12,1.0259,3
21434,Li7 Mn4 Co1 O12,0.20579999999999998,6