Index,Composition,bandgap,spgN
22671,Er1 Mn3 Fe3 Sn6,0.0,183
22672,Er4 U1 S7,0.0,8
22673,Cu1 Ni1,0.0,65
22674,Er5 Sn18 Rh6,0.0,216
22675,Cu4 S2,1.2139,12
22676,Cr12 As4 C3 N1,0.0,12
22677,Dy1 In7 Cu5,0.0,44
22678,Cr2 Re4 O12,0.0,136
22679,Cu4 H6 N2 O10,0.18130000000000002,1
22680,Cr2 Fe2 Co2 O8,1.0017999999999998,74
22681,Cr2 C1,0.0,164
22682,Cr4 Cu2 Se6 Br2,0.0,166
22683,Co20 Sb60 I4,0.0,12
22684,Co4 Re10 B8,0.0,65
22685,Ce1 Tm4 S7,0.0,8
22686,Ce1 Al1 Co4,0.0,65
22687,Ce1 Zr3 Mn8,0.0,156
22688,Ce1 Co10 Mo2,0.0,71
22689,Ca2 Pd2 F8,0.43730000000000013,14
22690,Be4 Fe1 Ge1,0.0,216
22691,Ba2 Sr2 Y8 Cu4 O20,0.11070000000000002,26
22692,Be46 Rh7,0.0,156
22693,Ca8 Al11 Fe1 Si12 O52,0.0,6
22694,Al5 Se8,0.0,216
22695,Ba2 Tl2 Cu2 Hg1 O8,0.0,107
22696,Ca8 Fe16 Cu8 O40,0.0,9
22697,Ba4 Pr4 Co8 O23,0.0,123
22698,B6 Ir4,0.0,12
22699,Al1 Ag3,0.0,65
22700,Ag1 Sb1 Pb1 S3,0.04439999999999955,44
22701,Ag6 S2 I1 Br1,0.2843,42
22702,Ce8 Gd8 O28,1.4405000000000001,5
22703,Mn1 As1 Pd2,0.0,225
22704,O12 In6 Re1,0.004799999999999471,148
22705,O6 Sn2 Hg2,0.0,167
22706,O8 Cu2 Pr4,0.0,64
22707,O26 Si6 Sm10,0.0,176
22708,O28 P8 Ti4 Ba2,0.0,15
22709,C2 Ge6 Mo10,0.0,193
22710,Te1 Np1,0.0,221
22711,Ba2 Co1 Mo1 O6,0.0,225
22712,O12 Ca2 Sr4 Mo2,2.2527,59
22713,Si2 Eu1,0.0,191
22714,Co2 Sn4 Dy2,0.0,63
22715,Tb4 Mn4 Si4,0.0,62
22716,Ba2 Tl1 Cu1 O5,0.0,123
22717,Ca4 Mn4 Sb8,0.028100000000000236,62
22718,O8 Cd4,1.2535000000000003,205
22719,K4 Fe4 Br12,0.05509999999999993,62
22720,H12 O24 Si6 Cu6,0.2538,148
22721,H16 N4 O4 Cl4 Pt2,1.7313,14
22722,H48 N16 F32 Ti4,4.5618,56
22723,H12 Li2 O14 Mn2,2.1661,186
22724,O20 V4 U4,0.31510000000000016,57
22725,Li6 O24 P6 Bi3,0.16720000000000002,1
22726,Li12 Ti8 P12 O48,0.0625,14
22727,Li4 Nb4 P16 O48,0.06579999999999986,60
22728,Li8 O16 P4 Cu4,1.4313000000000002,14
22729,Li6 Ti4 P6 O24,0.0,148
22730,P2 S2 Nb2,0.0,71
22731,Li6 N1 Br3,2.0856999999999997,225
22732,H28 B18 Cs2,3.8007,2
22733,Al4 Cu2 O8,0.0,227
22734,Br32 W12,0.0,64
22735,S6 Ba4,1.5977999999999999,109
22736,O24 P16 Se12,3.4484000000000004,14
22737,Ce1 Ir5,0.0,191
22738,C8 O24 Rb8,3.9192,14
22739,Co4 P16 O48,0.35630000000000006,60
22740,O28 P8 Co4,0.0,14
22741,Li4 O48 P12 Fe8,0.0034999999999999476,14
22742,O52 P16 Mo4,1.5402,19
22743,O6 Ni1 Ba2 Re1,0.0,225
22744,Li2 Ni4 P10 O32,0.37259999999999993,7
22745,Li12 O32 P8 Ni4,0.6779,4
22746,H1 Li2 N1,2.7661,44
22747,Li3 O4 Ta1,1.5777,139
22748,O8 Ti4,2.2392999999999996,14
22749,Cr6 Pt2,0.0,223
22750,Mn1 Rh1 Sb1,0.0,216
22751,Cu1 Mn3 N1,0.0,221
22752,Ag12 Ru4 O16,0.0,91
22753,B56 C14,0.0,1
22754,Al16 Cu8 O32,0.010299999999999976,160
22755,F47 La6 Zr8,0.0002999999999993008,5
22756,Fe2 O30 P10,0.5812,11
22757,Co2 P8 O24,0.24680000000000002,15
22758,Li4 O16 P4 Cr2,0.0,4
22759,Fe2 O18 P6,2.0457,2
22760,Li2 Mo2 P4 O16,1.3307,15
22761,Ba6 N12 O30 H12,2.3958,169
22762,Ba6 N12 O30 H12,2.3683,170
22763,Sr1 Co1 O3,0.0,221
22764,Tl4 Fe4 O12,0.008999999999999453,62
22765,O2 Ca2,3.1205999999999996,194
22766,O24 Nb8 Ag8,1.7878999999999998,57
22767,P4 H40 C8 N4 O16,5.6895,14
22768,Ga2 H40 C4 S4 N2 O28,4.7139999999999995,4
22769,Cu6 Si6 O18,0.5818,2
22770,Sb2 As6 Se8 F12,1.8713000000000002,11
22771,Si12 O24,5.5113,12
22772,Na4 Ti4 P8 O28,0.10580000000000034,14
22773,Te8 Mo4 Cl16 O4,1.2227999999999999,14
22774,Na24 V8 S16 O16,2.3954,61
22775,Sr8 Tl3 Cr1 Cu4 O20,0.0,65
22776,Ba2 Tb2 Mn4 O12,0.0,51
22777,Ba16 Fe12 S24 F16,1.2306,62
22778,Ho8 Mg12 Zn61,0.0,204
22779,Li2 V6 O13,0.0,12
22780,Nd1 Ga3,0.0,221
22781,U6 Al24 Ru8,0.0,194
22782,Hg4 H40 C12 I12 N4,2.0883,14
22783,Mo30 Se38,0.0,176
22784,Sn4 Bi4,0.0,64
22785,Ge6 N8,1.6109999999999998,220
22786,O3 Ca1 Ti1,1.8283,221
22787,Li8 Co4 P8 O32,0.0897,1
22788,Si24 O48,5.8144,53
22789,In4 P12 H8 O40,3.8946,14
22790,Mn40 Si16,0.0,92
22791,Tl4 Pt2 C8 N8,2.5584000000000002,14
22792,La1 Nb2 Cu1 Br1 O7,0.0,123
22793,H12 Cl4 O20,4.753299999999999,62
22794,Mo8 Nd4 O32 Tl2,0.0,15
22795,I1,0.0,12
22796,La2 Fe24 O38,0.9630000000000001,194
22797,N20 O44 K12 Hg4,2.4972,62
22798,Sn3 P4 O14,2.2445000000000004,2
22799,Ag3 S1 I1,0.2599999999999998,6
22800,In8 Cu7 Se16,0.0,1
22801,Bi20 S24 Cl12,1.4486999999999997,1
22802,Ag1 Mo6 S8,0.0,148
22803,Ag3 S1 I1,0.34129999999999994,155
22804,Ca1 In2 Te4,0.6854999999999993,97
22805,Yb4 Ti4 Cd4 Sb4 O28,0.0,1
22806,Ca2 Bi10 O17,1.5488,1
22807,U8 Mo4 O32,0.0,1
22808,Na4 Yb4 Ti4 Nb4 O24 F4,0.0,91
22809,Ta6 O15,3.0538999999999996,1
22810,H16 Pt1 C4 N2 Cl6,2.1643,12
22811,Tb16 O26,0.0,1
22812,Ag14 Te7,0.0,1
22813,Zr2 Cl6,0.0,148
22814,In4 As3 Se1,0.0,121
22815,Li8 Cr4 Cl16,0.43169999999999975,1
22816,K6 Ba4 Pr4 Bi6 O30,0.0,166
22817,Ce16 Si16 N28 Cl4 O12,0.015500000000000291,19
22818,Mn4 Cu2 O8,0.0,74
22819,La5 Mn5 O18,0.0,1
22820,La16 Mg2 Ga14 O47,2.7936999999999994,1
22821,Na3 Ca7 Ti7 Nb3 O30,1.1804999999999999,6
22822,H8 O4,5.2928,141
22823,Zn4 H32 C8 I8 N16 O8,1.8638,14
22824,Zn8 H80 C32 N32 O48,4.5822,15
22825,Ti1,0.0,225
22826,Ta4 W4 O22,2.2479,5
22827,Mn24 Cu12 O48,0.0,8
22828,Al6 P6 H18 C6 N2 O28,4.958100000000001,9
22829,S6,2.4884,148
22830,La20 Mo24 O84,1.0219000000000005,19
22831,Sr10 Fe6 F38,3.1250999999999998,1
22832,La12 Th6 Ta6 Cl18 O36,4.145300000000001,6
22833,As10 H120 C40 I30,1.7631999999999999,84
22834,Sb4 H60 C18 N6 Cl18,3.1511,7
22835,Cu2 H36 C8 N20 Cl4 O4,0.8257000000000001,2
22836,Zr2 H28 C4 N16 F12,4.6251,14
22837,Mg16 Si8 H1 O32,0.0,1
22838,K4 Ho4 Co4 Si8 O28,3.0267,5
22839,V4 H96 C16 N16 Cl28,0.14590000000000003,13
22840,V4 H64 C16 N12 O48,3.0852,19
22841,La5 Re3 Ni1 O16,0.0,2
22842,Fe10 P8 H12 O40,1.4431000000000003,15
22843,Li4 Cr4 H8 O18,2.6469,9
22844,Li1 Bi1 F5,0.0,82
22845,Li4 Cu4 P4 O16,0.0,33
22846,Li4 Cu2 Si2 O8,0.0,31
22847,Tb1 Bi5 O9,1.6101999999999999,1
22848,Li1 Ag1 F4,0.0,1
22849,Li2 Ag1 F5,0.893,1
22850,Li8 Bi4 S14,0.9159999999999999,14
22851,Li4 Cu2 Sb2 O10,0.34830000000000005,1
22852,Li10 Sb2 S2,0.9053999999999998,15
22853,Li4 Ti4 S10,1.1803000000000003,15
22854,La4 Bi2 O9,2.5475000000000003,1
22855,Y2 I2 O2,2.2197000000000005,166
22856,Li1 Ta2 Cu1 O6,0.8805999999999994,155
22857,Ba2 Nb6 N2 O14,1.2927,1
22858,Bi2 Te1 O2,0.5792000000000002,1
22859,Li4 Cu2 P2 O8,1.2365000000000004,6
22860,Ba6 Hf1 O8,2.4348,225
22861,Sm4 Y4 O12,4.2039,33
22862,Ba4 La2 I14,1.8566000000000003,15
22863,Ba8 Hf2 O12,3.0638000000000005,167
22864,Tb2 Ce2 O8,0.15639999999999965,1
22865,Ga8 Hg4 O16,1.3150000000000002,62
22866,Dy2 Te6 O16,0.0,15
22867,Li9 Sn9 P12 O48,0.25239999999999974,1
22868,Li8 Sn8 P8 O32,3.4943,61
22869,Li2 Ti2 P8 O24,0.1655000000000002,12
22870,Li4 Sn2 P10 O30,0.11250000000000027,11
22871,Li4 Cu4 P12 O36,0.5284,19
22872,Li4 Cu4 P4 O16,0.42749999999999977,62
22873,Li1 Sb3 P2 O10,2.8343,1
22874,Sn16 N16 O8,0.0,1
22875,Li2 Ti7 Nb6 O30,2.2723,143
22876,Li2 Bi6 P12 O40,3.9787,41
22877,Ag4 Hg10,0.0,127
22878,Mg7 Cu2 O9,0.0,8
22879,Li1 Cu2 C2 O6,0.0,1
22880,Ti2 Sn2 P4 O16,1.6575000000000002,11
22881,Li3 Bi1 P2 O8,3.5843,8
22882,Li4 Cr2 Sn2 P4 O16,2.0591999999999997,11
22883,Li6 V6 P6 O24,2.5282,159
22884,Li4 Mn5 Cu3 O16,0.0,1
22885,Li6 Cr6 P6 O24,1.4076999999999997,146
22886,Li4 Co3 Sn1 P4 O16,1.5606999999999998,6
22887,Li24 Fe8 P16 O64,2.4926999999999997,14
22888,Co5 Sb1 O12,0.0,12
22889,Li4 Mn2 P4 O14,2.5407,15
22890,Li4 Mn1 P2 O8,4.0977,2
22891,Li24 Fe24 P24 O96,3.3005,169
22892,Li5 Fe3 Co2 O10,1.0204999999999997,2
22893,Li4 Co2 P4 O14,2.9702,2
22894,Co2 P4 W2 O16,2.0195,11
22895,Li5 Fe3 Co2 P6 O24,2.3770000000000002,1
22896,Li6 Cr3 Sb1 P6 O24,1.8610000000000002,1
22897,Mn3 Co2 Ni1 P6 O24,0.0,146
22898,Li8 Cr4 Si4 O16,1.9817999999999998,14
22899,Sn16 N16 O8,0.6313999999999993,1
22900,Li4 Cr2 Si8 O22,0.5257999999999998,87
22901,Li2 Fe1 P2 O8,0.0,147
22902,Li6 Ti3 Ni6 O18,0.47989999999999977,12
22903,Li4 Fe6 O12,0.0,1
22904,Li14 Fe2 P8 O28 F2,3.9177999999999997,9
22905,Li4 Mn6 P8 O28,3.4947,4
22906,Li4 Mn4 P12 O36,4.2941,57
22907,Li6 Mn6 P8 O32,0.8276999999999999,2
22908,Li8 Ti4 Mn10 O24,0.41339999999999977,4
22909,Li6 Ni6 Sn3 O18,0.5133999999999999,2
22910,Li12 Mn16 F60,0.0,31
22911,Li4 Mn4 F16,2.4813,52
22912,Li6 Cr6 Co3 O18,0.0,2
22913,Li4 Co4 C4 O16,0.9274,14
22914,Fe8 O8 F8,0.8373999999999997,6
22915,Mn12 O5 F19,0.1109,1
22916,Fe12 O12 F12,0.43809999999999993,6
22917,Li2 Co2 H16 C4 O20,0.6846000000000001,9
22918,Li2 Co2 Si2 O8,1.3725,7
22919,Fe4 O4 F4,1.2643,6
22920,Li12 Co6 Si12 O36,2.9687999999999994,43
22921,Li1 V1 P3 O9,2.6039999999999996,146
22922,Li2 P6 W4 O26,3.1484,13
22923,Li3 Fe2 O6,0.0,1
22924,Li13 Fe2 O12,0.0,1
22925,Li3 V2 Fe3 O10,1.2992,2
22926,Li8 Mn8 F32,0.7841,31
22927,K4 Li2 Mn2 P2 C2 O14,3.2914,11
22928,Li5 Cr2 O8,0.5179,1
22929,V4 O4 F8,1.1179999999999999,13
22930,Li3 Co1 O1 F3,0.10860000000000003,123
22931,Mn12 O10 F14,0.20460000000000012,1
22932,Na32 Co8 O32,1.2643,1
22933,Mn16 O8 F16,1.0902999999999996,1
22934,Li8 Cr4 F16,1.9648999999999996,6
22935,Li4 Fe7 O2 F14,2.5175,1
22936,Li3 Fe8 B8 O24,1.3367000000000002,1
22937,Li3 Fe8 B8 O24,1.4546,1
22938,Mn12 O10 F14,0.28570000000000007,1
22939,Li3 Fe8 O3 F13,2.2539999999999996,1
22940,Li8 Fe4 O12,0.0,52
22941,Li6 Co2 Ni6 O16,0.0,1
22942,Li3 Fe8 B8 O24,1.6965000000000001,1
22943,Na8 Fe4 O8,0.6002999999999998,14
22944,Li3 Ni4 O8,0.2835000000000001,2
22945,Li3 Fe8 B8 O24,1.7381999999999997,1
22946,Li3 Fe8 B8 O24,1.5204999999999997,1
22947,Li4 P10 W2 O30,3.931,9
22948,Li3 V1 Cr3 O8,1.5066000000000002,166
22949,Li4 V8 F28,2.2507,7
22950,Li4 Ag4 F16,0.0,14
22951,Li12 Sn10 P16 O56,2.6673000000000004,2
22952,Li20 Cr12 Fe4 O32,2.3598,1
22953,Li18 Fe12 O36,0.0,15
22954,Li2 V4 F10,2.2369,63
22955,Li5 Co7 O3 F13,1.804,1
22956,Mn8 O12 F4,0.0,1
22957,Li4 Ni6 O2 F12,3.6301,2
22958,Mn12 O5 F19,0.0,1
22959,Li8 V4 O8 F4,1.7723000000000004,5
22960,Li4 V2 O2 F6,1.6465,12
22961,Mn1 Co3 O8,1.0108000000000001,166
22962,Li4 V4 O8 F8,2.5282999999999998,29
22963,Mn4 F14,1.8053,2
22964,Li8 V4 O4 F16,2.6315,33
22965,Ba5 Nb5 O14,0.0,10
22966,Ba4 Ca4 I16,3.1399999999999997,57
22967,Ba12 Ca2 I28,3.0651,64
22968,Li6 Si6 Bi6 O24,3.3375000000000004,173
22969,Mn10 O5 F15,0.0,1
22970,Li32 Ti4 S24,2.6980000000000004,33
22971,Li8 Ti10 S24,1.0319000000000003,2
22972,Ti3 V2 Cu1 P6 O24,0.0,146
22973,Li4 Ni8 O4 F12,2.7368,44
22974,Li2 Mn4 F14,1.6717,9
22975,Li4 Mn2 O2 F6,1.4670999999999998,5
22976,Li4 V2 Si4 O14,1.7176000000000005,2
22977,Cr4 P4 O16,1.3818000000000001,2
22978,Li4 V4 Si4 O16,2.686,7
22979,Li7 Mn1 O4 F2,2.4823,1
22980,Mn5 O1 F11,1.026,1
22981,Li6 Mn1 V1 P2 C2 O14,2.6874000000000002,6
22982,Li2 V2 Si6 O16,2.6779000000000006,2
22983,Li4 Mn2 C4 O12,3.8183999999999996,14
22984,Mn8 O12 F4,1.4567,62
22985,Li8 Ti18 O40,1.8417000000000001,1
22986,Li12 V3 Fe1 P4 C4 O28,2.6919,6
22987,Li4 Ti2 Fe3 Ni3 O16,0.0,1
22988,Li3 V4 P6 O24,0.2391000000000001,2
22989,Li16 Mn2 O10 F2,0.7027000000000001,1
22990,Co4 H16 Se4 O20,2.7172,14
22991,Li12 Mn4 P4 C4 O28,4.0612,14
22992,Li12 Mn4 P4 C4 O28,4.0117,14
22993,Li12 Co4 P4 C4 O28,2.8343999999999996,14
22994,Li1 Co2 Cu1 O6,0.1994999999999998,8
22995,Li2 Co2 Cu2 O8,0.0,2
22996,Mg7 Co17 O32,0.0,12
22997,Li4 Ni2 P4 O14,4.366,1
22998,Na8 Sb4 C8 S2 O32,1.226,1
22999,Li12 B8 O18,4.4245,2
23000,Na2 Li3 Ti3 Al1 P6 O24,0.11960000000000015,146
23001,Yb2 Sc2 O4,0.0,194
23002,Zn9 Fe15 O32,0.0,1
23003,Na6 Ni4 P4 C4 O28,0.0,7
23004,Li8 Ti6 Mn12 O36,0.5859000000000001,26
23005,V9 P1 O25,0.9107,82
23006,Li4 Mn3 Fe3 Ni2 O16,0.0,8
23007,Li4 Mn3 Cr2 Co3 O16,0.0,1
23008,Li4 Ti3 Ni3 W2 O16,1.084,1
23009,Li4 Ti2 Fe4 O10,1.2397,2
23010,Li6 Al4 V2 O12,2.1698,2
23011,Li12 Mn4 O12,2.4972000000000003,14
23012,Li4 Ni5 Bi1 O12,0.0,12
23013,Li3 Mn4 Cu1 O8,0.0,12
23014,Co2 B2 O6,1.196,2
23015,Mn4 Tl4 O12,0.0,14
23016,Li4 Fe6 Co2 O16,0.0,186
23017,Li3 Ti1 Mn3 O8,1.0529000000000002,2
23018,Cr2 Fe4 O10,0.34189999999999987,63
23019,Li4 Fe4 P4 C4 O28,0.0,1
23020,Li4 Fe4 P4 C4 O28,0.00269999999999998,1
23021,Ba4 La4 Cl20,4.1962,14
23022,Li6 V6 B4 O20,1.0475000000000003,1
23023,Li4 Mn4 Al4 O16,1.6148999999999996,95
23024,Li4 Fe2 H24 S4 O28,3.9178,14
23025,Li16 Hf2 O12,3.9011,185
23026,Li8 B4 Sb4 O16,1.7717999999999998,14
23027,Li9 V12 Fe7 O48,0.0,1
23028,Li4 Si8 Ni2 O20,3.7536999999999994,2
23029,Li12 Cr4 O12,1.0049000000000001,9
23030,Li2 Bi2 C2 S2 O14,3.6945,4
23031,Fe7 P12 W1 O48,0.0,1
23032,Li3 Fe1 Co4 O8,0.0,2
23033,Li6 Ni2 B4 O12,1.2337,2
23034,Ca8 Ce4 O16,2.2602999999999995,61
23035,Li6 Mn3 V3 O12,0.7126000000000006,1
23036,Li3 Ti1 Co4 O8,0.08919999999999995,12
23037,Li3 Zn2 Fe19 O32,1.2897999999999996,1
23038,Sr12 As8 O32,3.3602000000000003,14
23039,Li17 Co4 O16,0.7742,6
23040,Li18 Co4 O16,0.5753999999999999,10
23041,Na6 Si2 Sn2 C2 O14,0.0,11
23042,Li4 Ti3 Mn2 Ni3 O16,0.02629999999999999,8
23043,Na4 Co2 Si2 C2 O14,0.15629999999999988,11
23044,Li4 Ni2 C2 S2 O14,3.4721,11
23045,Li6 V3 W3 O16,1.3644,1
23046,Li4 Fe1 Ni5 O12,0.0,5
23047,Mn6 V2 O16,0.7397,9
23048,Ti4 Ni2 P6 O24,0.15839999999999943,167
23049,Ba8 Sr8 I32,3.4688,14
23050,Li4 Nb3 Cr5 O16,0.20429999999999993,8
23051,Li3 Mn1 Sb4 O12,0.0,1
23052,Li2 V1 Fe3 O8,0.9518000000000002,166
23053,Li4 Sb2 As2 C2 O14,3.2398999999999996,11
23054,Sr8 Y4 I28,2.9672,4
23055,Li3 Mn3 Sb1 O8,0.0,12
23056,Li2 Sn2 As2 C2 O14,1.9866,4
23057,Li3 Ti4 Mn1 O12,0.0,1
23058,Sr12 Y4 I36,2.5314,7
23059,Li3 V4 Ni1 O12,0.07750000000000012,1
23060,Nb1 Co3 P4 O16,0.6510000000000002,6
23061,Li5 Mn4 O8,0.0,12
23062,La8 H24 O24,4.2526,14
23063,Li3 Mg1 Ni3 O8,0.238,1
23064,Li1 Co8 O9,0.0,2
23065,Li4 V3 Fe5 O16,0.9964999999999997,1
23066,Co6 Sn2 O16,0.0,186
23067,Li3 Ni3 Sb1 O8,0.0,2
23068,Li4 Fe2 Si8 O20,3.0789,2
23069,Li4 Mn1 Sn3 P4 O16,2.9147,6
23070,Li4 Co5 Ni1 O12,0.0,12
23071,Li5 Nb2 Fe5 O12,0.0,1
23072,Li8 Cu4 P4 O16,1.1588999999999992,1
23073,Li5 Mn3 Nb2 O10,0.18710000000000004,2
23074,Li4 Fe2 Cu2 O8,0.0,15
23075,Li3 Mn1 O4,0.0,1
23076,Li1 Co6 O7,0.0,2
23077,Li1 Zn2 Fe9 O16,1.5292,8
23078,Li4 Si24 Ni10 O60,3.9557,190
23079,Na16 Bi10 O28,0.19720000000000004,2
23080,Ba10 Li1 W7 O30,1.5209000000000001,8
23081,Li4 Co3 Te1 O8,0.7389999999999999,148
23082,K8 Li8 Ni4 O16,0.012699999999999989,1
23083,H48 Pt1 W6 C8 N24 O24,2.9777,148
23084,Li2 V3 Fe1 O8,0.0,160
23085,Li16 V12 P16 O60,2.2443,33
23086,Na12 Co4 O12,1.1156,31
23087,Fe2 Ni2 P4 O16,0.0,11
23088,Li1 Fe4 B4 O12,1.7777999999999998,1
23089,Li16 Mn8 F32,3.8068,14
23090,Fe10 O4 F16,1.3142,1
23091,Li8 Mg3 Cu9 Si16 O48,0.3738999999999999,2
23092,Li8 Nb1 O6,0.0,2
23093,O2 Na1 Al1,4.7292000000000005,166
23094,Fe10 O4 F16,0.9343999999999999,1
23095,Li4 Cr3 Sn3 Sb2 O16,0.0,8
23096,Cr3 Fe1 P6 O24,0.0,146
23097,Co3 Ni1 P4 O16,0.0,6
23098,Li16 V16 Si16 O64,2.6672000000000002,9
23099,V1 Fe3 P6 O24,0.0,146
23100,Na4 V20 O32,1.2919,212
23101,Li8 Mn12 Nb4 O32,0.6665000000000001,1
23102,La4 Nb4 N4 O10,1.4554999999999998,36
23103,Ni12 P16 O56,0.0,62
23104,Li2 Mn1 V4 Fe1 O12,1.3562999999999998,5
23105,Y4 Nb8 N4 O20,2.5304,1
23106,Ba2 Nb6 N2 O14,1.2513,1
23107,Li4 Mn2 P2 H2 O10,3.1918999999999995,1
23108,Lu4 Sc4 O12,4.4786,14
23109,Li4 V4 F16,2.4101999999999997,19
23110,Li4 Co12 P16 O60,0.6998000000000001,1
23111,Li3 V6 O3 F15,0.5311999999999999,152
23112,Li40 Fe8 S32,0.7655999999999998,61
23113,Li4 Fe4 Ni2 P6 O24,1.4032,5
23114,Li16 Sb2 S12,0.04010000000000025,185
23115,Li4 Mn3 Cr3 W2 O16,0.0,1
23116,Li4 Ti5 Co3 O16,0.5101,1
23117,Na4 Ni6 O14,1.1134000000000002,1
23118,Mn6 O8 F4,0.040000000000000036,2
23119,Li4 Mn8 F20,3.2776,62
23120,Li4 Fe2 F8,3.0891,26
23121,Li12 Bi4 B32 O60,4.0047999999999995,14
23122,Li4 Cr2 Fe3 Sn3 O16,0.0,8
23123,Li8 V6 O2 F22,0.9464,1
23124,Na4 Ni7 O16,1.0171999999999999,1
23125,Na6 V2 O6,0.40390000000000015,2
23126,Ti1 Mn7 P12 O48,0.0,1
23127,Li8 Bi4 B4 O16,2.5645999999999995,14
23128,Li4 Ti1 Ni3 Sn2 P6 O24,2.3186999999999998,1
23129,Li8 V4 F16,2.7356000000000003,33
23130,Li4 Cr7 P6 O24,2.1866000000000003,8
23131,Mn3 Sn1 P6 O24,0.0257,146
23132,Li12 Mn12 F48,1.0038,4
23133,Li6 Mn6 F18,3.5293,2
23134,Cr4 O12,1.8552,14
23135,Mg2 Fe2 O6,0.02660000000000018,148
23136,Li16 Mn8 F32,3.8952,14
23137,Li8 Cu4 P4 O16,1.1188000000000002,1
23138,Li2 Fe2 P2 C2 O14,0.0,11
23139,Li8 Ti12 Sn4 O32,1.2354000000000003,198
23140,Mn8 O14 F2,0.0,7
23141,Li6 Mn2 V2 P6 O24,0.43110000000000026,9
23142,Li6 Co4 Si4 O16,0.02200000000000002,4
23143,Li4 Fe4 P4 C4 O28,0.0,1
23144,Li6 Mn6 F30,1.3083999999999998,2
23145,Li12 Mn12 F36,3.5182,14
23146,Mn12 O7 F17,0.0907,1
23147,Sr8 Hf2 O12,3.7468000000000004,167
23148,Na12 Sb20 O56,1.1817000000000002,32
23149,Li8 Cu4 P4 O16,1.327,1
23150,Cr4 O12,1.5649000000000002,33
23151,Li2 Fe4 O4 F6,1.9177,1
23152,Mn12 O7 F17,0.25539999999999985,1
23153,Li18 Mn4 P8 H2 O36,1.0722,46
23154,Li6 V4 Si4 O20,1.5817,26
23155,Li4 Ti3 Co3 W2 O16,0.0398000000000005,1
23156,Na40 Gd8 O32,2.2016,137
23157,Li20 Co8 P12 O48,2.7403999999999997,1
23158,Mn12 O5 F19,0.0,1
23159,Mn3 Cr3 Sb2 O16,0.15660000000000007,1
23160,Li3 Co6 O3 F15,0.8269,1
23161,Na16 Bi8 O20,2.6917999999999997,14
23162,Mn10 O5 F15,0.15270000000000006,1
23163,Sr14 Cr14 O42,0.5876000000000001,1
23164,Fe10 O9 F11,1.1833,1
23165,Mn12 O5 F19,0.0,1
23166,Hf4 Cr4 O16,0.5763000000000003,60
23167,Li3 Fe2 Cu2 O8,0.0,2
23168,Na2 Co4 O6,0.0,36
23169,Na8 Cr4 P2 C8 O32,0.0044000000000000705,70
23170,Li4 Ti3 Cr3 Ni2 O16,0.9182999999999999,8
23171,Li3 Co4 W1 O8,1.3286999999999995,12
23172,Li2 Ti1 Mn1 O4,0.0,119
23173,Li1 O2 Ga1,3.7357,166
23174,Li5 Mn10 B10 O30,0.4835999999999998,1
23175,Li6 Fe6 Cu3 O18,0.0,1
23176,Mn8 O4 F12,0.472,14
23177,Mn12 O7 F17,0.2015,1
23178,Mn12 O4 F32,0.124,1
23179,Mn6 O4 F8,0.015700000000000047,1
23180,La20 Cu9 O40,0.0,2
23181,Li4 Mn4 P16 O48,1.2410999999999999,14
23182,Li4 V4 F20,1.736,14
23183,Li4 Cr4 P4 H8 O20,2.5440000000000005,33
23184,Li2 Mn2 P8 O24,1.3193000000000001,4
23185,Li6 Mn6 P8 O32,0.7661999999999998,14
23186,Li2 Fe8 B8 O24,1.7173000000000003,1
23187,Li2 Fe8 B8 O24,1.5541,1
23188,Li3 Fe8 B8 O24,1.7174999999999998,1
23189,Li4 Mn4 Si16 O40,2.6047000000000002,130
23190,Li6 Mn3 Nb1 P6 O24,0.7097,1
23191,Li16 V16 Si16 O64,2.6449,9
23192,Li4 Fe8 P8 H4 O32,3.2550999999999997,13
23193,Fe6 O2 F10,1.5957,2
23194,Li9 V12 Fe7 O48,0.0,1
23195,Mn12 O5 F19,0.0,1
23196,Mn12 O5 F19,0.0,1
23197,Li4 Mn4 P12 O36,4.1326,19
23198,Mn6 O5 F7,0.0,1
23199,Co21 O40,0.0,82
23200,Mn8 O14 F2,0.0,9
23201,Na8 Li8 V12 P8 O52,1.7887000000000002,14
23202,Li2 Mn8 P6 O24,1.5830000000000006,15
23203,Fe10 O9 F11,1.2817999999999998,6
23204,Li4 Mn4 P4 O16,3.1820999999999997,62
23205,Li8 Fe4 P12 O40,2.7885,14
23206,Li9 Fe3 P6 O24,2.2938,2
23207,Li4 V2 H4 O2 F10,2.4034,1
23208,Li8 Mn8 P8 O32,3.1308999999999996,14
23209,Li15 Cr15 Si1 O32,1.6393,1
23210,Se2 I4,0.8854,136
23211,Nb1 Bi1 O4,2.3185000000000002,1
23212,Li4 Fe4 Si8 O24,3.2301,20
23213,Lu2 Mg1 Tc1,0.0,225
23214,Lu2 Zn1 Tc1,0.0,225
23215,Li2 Ce1 Pb1,0.0,225
23216,Sr2 Ag1 Pt1,0.0,225
23217,Al3 Tc1,0.0,139
23218,Li4 Nb3 Fe3 Sb2 O16,1.0902999999999996,1
23219,Li2 Ni2 P8 O24,1.1149,4
23220,Li4 Mn3 Cr2 Cu3 O16,0.0,8
23221,Li4 Mn5 Ni1 P6 O24,0.4624999999999999,1
23222,Sm1 Er1 Ru2,0.0,225
23223,Rb8,0.0,223
23224,Ce2 Zn1 Pb1,0.0,225
23225,Tm1 Zr1,0.0,187
23226,K3 Cd1,0.0,221
23227,K3 Cd1,0.0,225
23228,Y1 Tc1 N3,0.0,38
23229,Ti4 Al2 O8,0.0,166
23230,Ca1 Ti4 S8,0.0,166
23231,Ca4 Co8 O16,0.9175999999999997,59
23232,Mg4 Ni8 O16,0.0,62
23233,Mo4 O12,0.8512,14
23234,Zn1 Sb1 F6,0.0,148
23235,Mg4 Mo4 O12,1.5122999999999998,14
23236,V2 Zn2 S2 F10,0.9207,1
23237,Ca12 Si12 Bi8 O48,3.4690000000000003,230
23238,Mg4 Mo4 F20,4.040500000000001,14
23239,Ca12 Ti8 Ge12 O48,0.0,230
23240,Al8 Cr12 Si12 O48,2.2963000000000005,230
23241,Ca4 Ti2 W2 O12,1.2272000000000007,14
23242,Mg6 Ti12 O24,0.0,8
23243,Mn4 Zn4 Ni4 P8 O36,0.10919999999999996,11
23244,Ca4 Ni4 Bi4 P8 O36,3.3332,11
23245,Li6 Mn8 O16,0.0,12
23246,Ce2 Lu6,0.0,194
23247,Fe3 Ni1,0.0,225
23248,Na12 Ge12 Mo8 O48,0.0,230
23249,Mg3 Sn1,0.0,25
23250,Pb2 S2,0.008399999999999963,194
23251,Ni1 Ag1 Se2,0.0,160
23252,Hf2 Be2,0.0,63
23253,Cr1 Fe3,0.0,225
23254,Re2 N4,0.0,7
23255,P12 Pd4,0.0,204
23256,Mg6 Al1 Ga1,0.0,38
23257,Te4 Mo1 W2 Se2,0.0524,187
23258,Te4 Mo1 W2 Se2,0.017100000000000115,156
23259,Hf1 Mg14 Cd1,0.0,187
23260,Mg14 Cu1 Sn1,0.0,38
23261,Mg14 Zn1 Bi1,0.0,38
23262,Mg14 Zr1 Sn1,0.0,38
23263,Na1 Mg14 Zn1,0.0,38
23264,Y1 Mg14 Zn1,0.0,38
23265,Ca1 Mg14 Al1,0.0,38
23266,Te2 Mo2 W2 Se4 S2,0.0,156
23267,Te2 Mo1 W3 Se4 S2,0.0,156
23268,Te2 Mo1 W3 Se4 S2,0.0,156