Index,Composition,bandgap,spgN
28131,Sn16 N16 O8,0.11629999999999985,1
28132,Li8 Fe4 F16,3.587,33
28133,Li4 Fe4 F16,3.1167000000000002,7
28134,Mn6 O8 F4,0.0,12
28135,V6 O8 F4,0.0,12
28136,Li9 Mn3 W7 O28,0.0,160
28137,Li4 Cr4 P8 O28,2.805,14
28138,Mn6 O10 F2,0.0,1
28139,Li8 Fe4 F20,3.5821,62
28140,Co6 O2 F10,0.1066999999999999,1
28141,Li16 Co12 P16 O60,2.8710999999999998,33
28142,Li6 Fe3 Sn1 P6 O24,1.6764000000000001,1
28143,In16 W8 O48,2.4632000000000005,61
28144,Li2 V2 F8,2.6597,2
28145,Li2 Fe2 P6 H16 O26,3.9819999999999993,2
28146,Li12 Mn2 V6 P12 O48,0.6322999999999999,2
28147,Fe6 O2 F10,1.4328999999999998,1
28148,Mn6 O7 F5,0.11129999999999995,1
28149,Mn6 O8 F4,0.0,8
28150,Li4 Mn4 P4 O16,3.4347,33
28151,Li8 Co4 O4 F12,1.0344,76
28152,Fe3 Ni3 P6 O24,0.0,146
28153,V6 O11 F1,0.45829999999999993,38
28154,Li3 Mn2 P4 H1 O14,4.1265,2
28155,Li12 Cr8 P12 O48,2.7965,5
28156,Li4 Co3 O1 F11,0.6618999999999999,1
28157,Li4 V2 O4 F2,1.5210000000000004,12
28158,Ni4 I8 O24,3.1389,14
28159,Li2 V1 P4 H8 O16,2.7262999999999997,2
28160,Li2 V4 P8 H4 O32,1.17,1
28161,Li1 Mn3 Cr1 O8,0.7275,12
28162,Li3 Mn1 Cr3 O8,0.5042,12
28163,Li2 Fe4 O3 F8,1.9601,2
28164,Li4 Mn4 P12 O36,4.0608,62
28165,Li8 Cr4 P8 O28,2.5196,14
28166,Li2 Ni2 H24 S4 O28,0.47409999999999997,4
28167,Li16 V16 F48,2.5628,61
28168,Li2 Fe4 O4 F6,1.5424,8
28169,Li4 Fe2 F8,0.0,64
28170,Mn4 O6 F2,0.0,63
28171,Mn6 O10 F2,0.0,6
28172,Li4 Co3 O1 F11,1.0743,1
28173,Mn10 O15 F5,0.0,38
28174,Li8 V10 Fe4 O24,1.3976000000000002,4
28175,Li3 V2 Cr2 O8,0.8428000000000004,2
28176,Li16 Mn8 Si8 O32,2.8520999999999996,29
28177,Li4 Mn2 Si8 O20,3.0364,2
28178,Si24 Bi4 O56,0.0,72
28179,Li4 Fe8 B8 O24,1.8867000000000003,1
28180,Li4 Fe8 B8 O24,1.5856000000000001,1
28181,Na8 Sn1 O6,1.7356,148
28182,Li4 Mn6 B6 O18,0.0,2
28183,Fe6 O2 F10,1.4469,1
28184,Li3 V6 P12 H6 O48,1.0149,1
28185,Li6 Mn3 Cr6 O18,0.6147,12
28186,Li4 Mn6 B6 O18,0.03479999999999994,1
28187,Li4 Mn6 B6 O18,0.0,2
28188,V3 Fe1 Sn2 P6 O24,0.0,146
28189,Cr8 S16 O64,0.0,61
28190,Li4 Mn10 Si24 O60,2.9910000000000005,190
28191,V4 Sn2 P6 O24,0.0,167
28192,Li4 Mn6 B6 O18,0.0,1
28193,Li4 Si10 Ni4 O26,3.6075999999999997,2
28194,Li8 Mn8 P8 O32,3.2423999999999995,61
28195,Pr2 Ag1 Ir1,0.0,225
28196,Li4 Ni16 P12 O48,2.2887,6
28197,Sc2 Cd1 Tc1,0.0,225
28198,Sr2 Pt1 Au1,0.0,225
28199,Rb2 F4,1.3380999999999998,136
28200,Li4 Sn2 P8 O24,3.8057999999999996,15
28201,V4 Cl16,0.12079999999999999,3
28202,Ce1 Al1 Ag2,0.0,225
28203,Na4 Tl4 O4,0.12119999999999997,6
28204,La2 Al24 O38,0.0,1
28205,Mn8 As6,0.0,12
28206,Li6 B30 H30,4.9946,181
28207,Yb2 Ac6,0.0,194
28208,Mg1 Hg5,0.0,38
28209,Na2 Bi6,0.0,194
28210,Li1 Tl3,0.0,221
28211,H16 Pd2 C4 N2 Cl6,1.4783000000000002,15
28212,Rb1,0.0,139
28213,Nd3 Mg1,0.0,139
28214,H5 Pb1 C1 I3 N2,1.4326,25
28215,Pm5 Mg1,0.0,38
28216,Ho2 Al1 Os1,0.0,225
28217,Mg2 Sn6,0.0,194
28218,Tm1 Mg5,0.0,187
28219,Fe2 Se4 Tl2,0.0,12
28220,Sm5 Mg1,0.0,38
28221,Pb2 Se4,0.0,140
28222,Cs2 As1 Br1 Cl6,0.0675,225
28223,Fe8 O2 F14,1.7938999999999998,36
28224,Li6 V6 P12 H12 O48,2.1322,2
28225,K1 Ca1 Br3,3.8981,1
28226,Nb1 Fe3,0.0,225
28227,Ca2 Cu6 P6 O26,0.0,11
28228,Ca1 Mn4 O8,0.0,166
28229,Ca1 Co4 O8,0.31910000000000016,8
28230,Ca2 Ni4 O8,0.8057000000000003,2
28231,Cu3 Sn4 O12,0.0,204
28232,Zn3 Cu2 As4 O16,0.5052,1
28233,Ca2 Fe2 F8,3.6648000000000005,1
28234,Al1 Ni1 F5,4.778700000000001,71
28235,Ca2 Ni4 O8,0.7778,2
28236,Zn2 Ag2 F10,0.0,1
28237,Ca2 Bi3 O8,0.0,12
28238,Zn4 Fe8 P8 O32,2.7890000000000006,1
28239,Zn2 Mo2 F10,3.222,1
28240,Y6 Ti6 O18,0.0,185
28241,Ca2 Cr3 O8,0.4211999999999998,12
28242,Ca6 Ti4 Si8 O28,0.1205999999999996,15
28243,Mo4 O10,1.8672000000000002,59
28244,Ca1 Fe1 O3,0.0,221
28245,Co3 Mo1,0.0,221
28246,Be4,0.0,136
28247,Mg6 Cd1 Ga1,0.0,38
28248,Mg1 Ni1,0.0,123
28249,Ho1 Co3 Cu2,0.0,191
28250,Zn16 Si8 O32,2.6045,61
28251,Mg6 Zn1 Cd1,0.0,38
28252,Mg6 Al1 Cd1,0.0,38
28253,Na1 Mg15,0.0,187
28254,Er1 Pt5,0.0,191
28255,U2 Si2 Se2,0.0,139
28256,Cr2 Co1 Te4,0.0,12
28257,Ti2 Co1 Se4,0.0,12
28258,Te4 Mo2 W1 Se2,0.05750000000000011,156
28259,Mg14 Ga1 Sb1,0.0,187
28260,Na1 Mg14 Cd1,0.0,187
28261,Te2 Mo4 Se2 S4,0.0,156
28262,Te2 Mo4 Se2 S4,0.0,156
28263,Te2 Mo4 Se2 S4,0.0,156
28264,Te2 Mo4 Se2 S4,0.0,156
28265,Te2 Mo4 Se2 S4,0.0,156
28266,Y1 Mg14 Sn1,0.0,38
28267,Li1 Ca1 Mg14,0.0,187
28268,Te2 W4 Se4 S2,0.0,156
28269,Li1 Mg6 Ga1 O8,2.5258999999999996,123
28270,Mg6 Co1 Ni1 O8,1.2418000000000005,123
28271,Mg14 Cr1 Co1 O16,0.0,123
28272,Mg14 Cd1 Co1 O16,2.0304,123
28273,Mg14 V1 Co1 O16,0.0,123
28274,Mg14 V1 Fe1 O16,1.3727999999999998,123
28275,Mg14 Zn1 Cr1 O16,0.13649999999999984,123
28276,Ca1 Mg14 Cr1 O16,1.4038000000000004,47
28277,Na1 Mg14 Al1 O16,3.8353,123
28278,Mg14 Al1 Cu1 O16,0.9578999999999995,47
28279,Sr1 Mg30 Cu1 O32,0.019999999999999574,123
28280,Mg30 Zn1 Sn1 O32,2.191300000000001,123
28281,Sr1 Ca1 Mg30 O32,4.431100000000001,123
28282,Mg30 Al1 Cr1 O32,0.0,123
28283,K1 Mg30 Mn1 O32,1.4627,123
28284,Mg30 Al1 Fe1 O32,0.2024999999999988,123
28285,Ce2 Mg2,0.0,164
28286,Mg2 Cd4,0.0,187
28287,Na1 La1 Mg30 O32,4.436300000000001,123
28288,Zn4 Cr8 P8 O36,2.0124999999999997,62
28289,Ca4 Sn4 P8 O28,3.7854,14
28290,Mg2 V6 P6 O26,0.0,11
28291,Sr4 Y2 Ga2 Fe4 O14,0.5931000000000006,1
28292,Ca4 V4 Si16 O40,1.9167000000000005,130
28293,Mg2 Ti2 P6 W2 O24,0.8754999999999997,161
28294,Zn6 Cu12 O24,0.0,156
28295,Ca4 Bi8 P8 O36,2.7132,62
28296,Ca2 Bi4 O12,0.45009999999999994,31
28297,Zn2 Sn2 P8 O24,3.5097,1
28298,F8 Ca4,7.4573,62
28299,Mg2 Mn2 P2 O10,0.8868999999999998,1
28300,Ca2 V1 W1 O6,0.8920000000000003,2
28301,Zn2 Cu6 P8 O28,0.1867000000000001,14
28302,Ba2 Y1 Co3 O7,0.0,47
28303,Y2 Mn6 Se4 Cl2 O16,1.7861999999999996,59
28304,Mg1 V4 O10,1.0831,38
28305,Pb2 Se2,1.1440000000000001,63
28306,Sn2 S2,1.4274,2
28307,Ca2 Zn2 Pb2,0.0,194
28308,Sr5 Ca3 Ti3 Mn5 O24,0.0,1
28309,Ba2 Sr6 Co3 Cu5 O24,0.0,3
28310,Sr4 Ca4 Ti4 Mn4 O24,0.0,8
28311,Dy2 Cu2 Pb2,0.0,194
28312,Na2 Fe2 As2,0.0,63
28313,Ce2 Ni2 Sn2,0.05629999999999935,194
28314,C2 O4,6.5851,64
28315,Ga2 Fe1 Se4,0.0,111
28316,Ca1 Ni5 H1,0.0,35
28317,Ca1 Ni5 H1,0.0,65
28318,In2 Cu1 Se4,0.0,82
28319,Li4 Bi2 Au2,0.0,63
28320,Pr2 Co2 Sb4,0.0,129
28321,Sr2 Zr1 V1 O6,0.0,139
28322,Ce2 Fe2 Sb4,0.0,129
28323,Mn1 Re1 Pb2 O6,0.0,225
28324,Mg2 Sn6,0.0,44
28325,Mg4 Sn8,0.0,15
28326,Mg15 Zn3,0.0,155
28327,Mg6 Zn2,0.0,139
28328,Y6 Mg2,0.0,44
28329,Li6 Mg6,0.0,38
28330,Li6 Mg6,0.0,38
28331,Mg6 Ga2,0.0,44
28332,Ca6 Mg2,0.0,139
28333,Mg1 Ga3,0.0,25
28334,Yb2 Al2 B8,0.0,65
28335,Cs1 Pb2 Cl5,3.375,1
28336,K1 Mg30 Al1 O32,4.246499999999999,123
28337,Li1 Mg3 O4,0.0,221
28338,Sr20 Ca12 Ti12 Mn20 O80,0.10950000000000015,1
28339,Sr16 Ca16 Ti16 Mn16 O80,0.8357999999999999,1
28340,Yb7 Bi17 O36,0.2703000000000002,1
28341,Y6 Al2 O12,4.7041,148
28342,V6 O8 F4,0.4569000000000001,38
28343,Sc1 H1 O2,3.9965,166
28344,Li2 Mn1 Br4,1.423,139
28345,Na2 Ce2 O4,0.0,141
28346,Gd2 Co2 Ni6 B2,0.0,191
28347,Ba4 Mg4 Si4,0.1245999999999996,62
28348,Nb6 Fe7,0.0,166
28349,Nb6 Cr7,0.0,166
28350,Dy1 Mo6 Se8,0.0,148
28351,Fe8 Co2 Si2 B4,0.0,140
28352,Sc4 Mn4 O12,0.8919000000000001,14
28353,Fe8 Ni4 B4,0.0,62
28354,Li2 Mn2 As2 O10,0.18659999999999988,2
28355,U4 Cr4 Se12,0.0,62
28356,Rb2 Ag1 Au1 F6,0.0,225
28357,Na2 Li1 Ru1 F6,0.0,225
28358,Rb2 Li1 Sb1 I6,1.7214999999999998,225
28359,Rb2 Na1 Sb1 I6,1.8884000000000003,225
28360,Rb2 Au2 Cl6,0.0,221
28361,K2 Na1 Mo1 Br6,1.3648000000000002,225
28362,Rb2 Hg1 Sb1 I6,0.0,225
28363,K2 Rb1 Sc1 Cl6,4.0703,225
28364,Cs2 Pr1 Cu1 Cl6,2.3588999999999998,225
28365,Eu1 K2 Na1 Cl6,0.0,225
28366,Cs2 Tl1 Ga1 Cl6,2.4724,225
28367,K2 Er1 Cu1 Cl6,2.3468999999999998,225
28368,K2 Al1 Cu1 F6,1.1111,225
28369,K2 In2 Cl6,1.4002999999999997,225
28370,K2 Ag1 As1 F6,2.2281999999999997,225
28371,K2 In1 Ag1 Br6,0.2082,225
28372,Cs2 Ga1 Hg1 I6,0.0,225
28373,Cs2 In1 Hg1 Cl6,0.0,225
28374,Cs2 Au2 Br6,0.0,221
28375,Cs2 Na1 Ga1 Cl6,2.6886,225
28376,Cs2 Hg1 Bi1 F6,0.0,225
28377,Cs2 In1 Ag1 I6,0.0,225
28378,K1 Rb2 Nb1 F6,0.0,225
28379,Na2 Li1 Sc1 F6,6.059800000000001,225
28380,Ti8 Zn8 Sn8 O32,2.6725000000000003,33
28381,Li10 Co2 Ni18 O40,0.0,1
28382,Pr1 Au1,0.0,221
28383,Li1 Si1 Ga1,0.19090000000000007,216
28384,Sr4 Fe3 Cl1 O8,0.2250000000000001,8
28385,Li1 Cu3 O3,0.0,221
28386,Ni3 Sn1,0.0,225
28387,Sr10 Cr6 F38,2.9659000000000004,1
28388,Pb2 W2 O8,3.6418999999999997,2
28389,Sm24 Mn4 S40,1.1688999999999998,1
28390,Sr24 Ru22 O72,0.0,14
28391,Li4 Co2 O6,0.043300000000000116,12
28392,Li6 Mn2 Co2 O10,1.1698,2
28393,Li6 Mn4 O10,0.5216000000000003,2
28394,Li5 Co3 O8,0.0,12
28395,Li6 Mn4 O10,0.7909000000000002,12
28396,Li7 Co5 O12,0.7298999999999998,2
28397,Li5 Mn2 Co1 O8,0.13210000000000033,5
28398,Li7 Mn4 Co1 O12,0.49650000000000016,1
28399,Li7 Mn4 Co1 O12,0.5836999999999999,6
28400,Li9 Co7 O16,0.29940000000000033,2
28401,Li7 Mn5 O12,0.22929999999999984,12
28402,Li2 V2 O4,1.7012000000000005,9
28403,Li2 V2 F12,3.3426000000000005,163
28404,Li2 Mn2 F8,0.7775000000000001,12
28405,Li2 Sn2 P8 O24,0.10119999999999996,15
28406,Li2 Mn4 P4 O16,0.2601,4
28407,Li2 Fe2 P2 C2 O14,0.008599999999999997,2
28408,Li8 Zr7 Fe1 P12 O48,0.0481000000000007,1
28409,Li2 Co4 P4 O16,0.5217,1
28410,Li6 Mn2 O1 F11,0.0,5
28411,Li12 Mn2 V6 P12 O48,0.3739999999999999,1
28412,Li20 Sb4 S4,0.5941000000000001,57
28413,Li5 Co5 Sb2 O12,0.0,5
28414,Li10 Fe8 P16 O56,1.5454,1
28415,Li5 Cr2 P2 C2 O14,0.8628,1
28416,Li8 V6 P16 O58,0.7449,1
28417,Li8 V6 P16 O58,1.0253999999999999,1
28418,Li4 Mn7 P6 O24,2.8705,8
28419,Li10 Mn8 P16 O56,0.13759999999999994,1
28420,Li4 Mn2 Fe3 Sb3 O16,0.0,8
28421,Li8 Co10 O24,0.0,4
28422,Li6 Mn2 V2 P6 O24,0.6487,1
28423,Li12 Mn4 V4 P12 O48,0.4205000000000001,1
28424,Li12 Co4 P4 C4 O28,2.4212000000000002,1
28425,Li6 V10 P14 O58,0.85,1
28426,Li6 V16 O32,1.0549999999999997,1
28427,Li4 Fe2 O4,2.5806,12
28428,Li12 Mn3 Ni1 P4 C4 O28,2.8961,6
28429,La24 Ni12 O49,0.0,1
28430,Fe8 O2 F14,1.5668999999999997,1
28431,La24 Ni16 O55,0.052700000000000635,12
28432,Co2 H16 S4 O24,0.001100000000000101,14
28433,Co12 Bi4 O32,0.6669000000000003,1
28434,Ba2 Sr4 I12,3.6669,15
28435,Ba4 Ca4 I16,3.2684,62
28436,U8,0.0,62
28437,V6 H12 O20,1.74,1
28438,Pb8 C4 Cl8 O12,3.3547999999999996,1
28439,Cu4 Ge4 O12,0.02729999999999988,14
28440,Ge7 H18 O23,3.1633999999999998,1
28441,Co12 B4 O20,1.0282999999999998,55
28442,Ac6 Pm2,0.0,194
28443,Al1 Ga3,0.0,139
28444,Ac2 Sm6,0.0,194
28445,Ca3 Sn1,0.11279999999999957,221
28446,Ca1 Eu3,0.0,139
28447,Co1 Pd3,0.0,221
28448,Co2 Pd6,0.0,194
28449,Ce1 Ho1 Mg2,0.0,225
28450,Ce1 Eu1 Zn2,0.0,225
28451,Eu4 Mg2,0.0,12
28452,Ga3 Sn1,0.0,225
28453,Er1 Mg5,0.0,38
28454,Ga1 Pd3,0.0,225
28455,Ga3 Ag1,0.0,139
28456,In2 Sn6,0.0,194
28457,La3 Hg1,0.0,139
28458,K1 Rb3,0.0,225
28459,Mg16 Sc1 Al12,0.0,8
28460,Mg16 U1 Al12,0.0,160
28461,Mg1 Cu3,0.0,139
28462,Mg1 Hg3,0.0,25
28463,Pm6 Zn2,0.0,194
28464,Sr1 Yb1 Eu2,0.0,225
28465,Sb1 Pd3,0.0,221
28466,Sr1 Eu1,0.0,187
28467,Th3 Cd1,0.0,139
28468,Th1 Bi3,0.0,221
28469,Y1 Ho1 Ir2,0.0,225
28470,Sc4 Rh4 O12,0.9379,11
28471,Sm2 Ga2 Co15,0.0,166
28472,Ce4 Zn4 Sn4 H6,0.0,186
28473,Tb6 Ga2 Fe2 S14,0.07059999999999977,4
28474,Cu2 B2 H8 Cl2 O8,0.008700000000000041,85
28475,Sr2 Cu4 B4 O12,0.12550000000000017,108
28476,Dy6 Ga2 Ni2 Se14,0.18589999999999973,173
28477,Na2 H10 C2 O8,5.0987,4
28478,Nd6 Ga2 Co2 Se14,0.0,4
28479,Er6 Ga2 Ni2 S14,0.2820999999999998,173
28480,Ce2 Mn3 Cu9 As7,0.0,174
28481,Cs1 Fe1 P1 H12 O10,0.0,216
28482,Na4 C8 N4 O12,4.4317,14
28483,Zr16 Os8 C4,0.0,227
28484,Tm12 S18,2.5167,185
28485,Na2 Cd4 Ge6 O18,0.6168,2
28486,Mn6 As4 H52 S16 N20,0.5151999999999999,15
28487,Na4 Cu10 Te2 S6 O38,0.0,11
28488,La4 B10 H14 C8 O28,4.2907,9
28489,W24 I64,1.0642999999999998,14
28490,Si44 H252 C84,3.4047,14
28491,K4 U4 H12 S4 O32,2.0154,14
28492,Sb18 O48,0.0038000000000000256,13
28493,Cs4 U4 Se8 O32,0.2028,14
28494,Fe4 Te12 S12 Cl12 O36 F72,3.0258000000000003,14
28495,Cs4 Ce2 N10 O34,0.09699999999999998,15
28496,Tl4 Cu8 As8 O32,0.0,14
28497,Cd2 H12 C4 O14,3.5415,1
28498,Zn18 S18,1.9773,160
28499,Gd8 Cr8 O40,0.18310000000000004,14
28500,La4 Nb8 Cu4 Cl4 O28,0.21350000000000025,55
28501,Er2 Al2 B28,0.0,74
28502,Co2 Te12 O26,0.0002999999999993008,148
28503,Zn18 S18,1.9938999999999998,160
28504,Si8 H64 C8 N32 F48,5.4276,56
28505,Na2 Ga22 O36,0.05059999999999998,11
28506,Mg28 Si32 O96,0.21999999999999975,62
28507,La16 Fe4 Sb8 Se40,0.12659999999999982,57
28508,Na8 La4 H8 C20 O44,3.4195,14
28509,Zn18 S18,1.9860000000000002,160
28510,Zn18 S18,1.9752000000000003,160
28511,Zn18 S18,1.9857,160
28512,La4 Nb8 Cu4 Br4 O28,0.15839999999999987,55
28513,W12 O32,0.4599000000000002,55
28514,Zn18 S18,1.9928000000000001,160
28515,Yb2 Cr2 Mo12 H68 O76,0.4163999999999999,2
28516,Zn18 S18,1.9819,160
28517,U2 Al8 B6 O28,0.41470000000000007,11
28518,Ba18 Ge46 O114,0.0,36
28519,Si20 H114 C38,3.2882999999999996,5
28520,Zn18 S18,1.9813000000000003,160
28521,K4 Yb4 P8 H16 O36,0.10370000000000001,14
28522,Nd8 Cr8 O40,0.48050000000000004,14
28523,Tm12 Mn12 Sn24,0.0,55
28524,Zn18 S18,0.007300000000000084,160
28525,Ba10 Re3 O22,0.0,12
28526,Na8 Ce4 H8 C20 O44,0.0,14
28527,Si6 Ge4 H66 C22,3.6196,2
28528,In4 As8 Pb4 O32,0.13319999999999999,14
28529,Na4 U8 H20 C16 O60,2.199,62
28530,Cd2 H16 C8 Br4 N16,3.4072,14
28531,Na12 H24 S12 N12 O36,4.9921,19
28532,Al1 Ag3 F6,0.2595,225
28533,Rb3 Fe1 F6,3.6108,139
28534,U4 Tc2,0.0,65
28535,Li1 Mg2 Pb1,0.0,225
28536,Cu2 As2,0.0,194
28537,V6 Cd10 O24,0.2932000000000001,15
28538,U6 Ti2 Sn10,0.0,193
28539,U6 Al24 Co8,0.0,194
28540,Tm4 Ni2 Ru2 O12,0.0,14
28541,Th4 Cr4 Sb12,0.0,57
28542,U8 W4 O32,0.0,55
28543,Na2 Mo6 Se8,0.09440000000000026,2
28544,Li2 Cr4 Mo6 O24,0.633,2
28545,La6 Co2 Si2 S14,0.0,173
28546,K2 V6 Cd2 Cu8 O26,0.0,11
28547,La4 B20 H4 O40,0.22640000000000016,14
28548,K3 As1 F6,4.2417,2
28549,K4 Dy2 Nb10 O30,1.9245999999999999,127
28550,Ho2 Ta10 Ag4 O30,2.638,127
28551,Gd4 In4 O12,2.5205999999999995,62
28552,Er6 Co16 Sn8,0.0,186
28553,Cs2 Tm2 Mo4 O16,2.9429000000000007,15
28554,Ce8 Pd24 Pb1,0.0,221
28555,Ce4 Ta4 O18,1.5227,14
28556,Ca2 U2 I12,0.2173999999999996,163
28557,Ce8 W4 O24,0.0,15
28558,Ba2 Cu2 Ru10 O22,0.0,194
28559,Ba10 As6 S2 O24,0.0,176
28560,Ba8 Ti12 Si8 O50,0.0,13
28561,Ba2 Ca2 Nd1 Ti2 Cu2 O12,0.0,139
28562,Zr1 Ti1 N2,0.0,166
28563,Zr4 Nb4 V4,0.0,38
28564,Zr2 Co6 B4 O16,2.3385000000000002,26
28565,Zr10 Al2 Ni8,0.0,118
28566,Zn2 Ga1 Ag1 Se4,0.12670000000000026,6
28567,Zr4 Co2 Mo6,0.0,194
28568,Zr4 Si2 Ni6,0.0,194
28569,Y1 Co1 C1,0.0,47
28570,Y1 Th1,0.0,187
28571,Y4 Th4 C12,0.0,199
28572,Y3 Zr3 Co18,0.0,160
28573,V2 P2 O10,1.3224000000000002,15
28574,Tm2 Fe1 Si4,0.0,38
28575,V2 Fe1 Se4,0.0,8
28576,U5 Si1 S4,0.0,87
28577,Ti4 Mn4 Al4,0.0,38
28578,U2 Pd5 Au5,0.0,8
28579,Ti4 Al11 Ni1,0.0,99
28580,Th1 Fe1 Ni4,0.0,156
28581,Th3 U3 P8,0.0,5
28582,Tb1 Zr3,0.0,187
28583,Tb2 Mn2 Al2,0.0,74
28584,Tl6 Mo30 Se38,0.0,11
28585,Te15 W2 Br12 O2,0.35619999999999985,1
28586,Te15 Mo2 Cl12 O2,0.13420000000000032,1
28587,Ti3 Fe3 Bi7 O21,1.7493000000000007,8
28588,U4 Mo30 Se40,0.0,2
28589,Tb2 Si3,0.0,44
28590,Tb4 Mn2 S8,0.13539999999999974,36
28591,Ta1 Nb1,0.0,65
28592,Ta4 Ni6 Ge2,0.0,194
28593,Ta3 Zn2 Bi3 O14,2.4435000000000002,166
28594,Sr1 La1 Ti1 Mn1 O6,0.0,146
28595,Sr1 La1 Nd1 Cu2 O6,0.0,107
28596,Sr1 La3 Co1 Ni1 O8,0.0,38
28597,Sr1 Ca1,0.0,187
28598,Sr2 V1 Mo1 O6,0.0,123
28599,Sr1 Bi3 I3 O4,0.0,107
28600,Sr4 Co3 Re1 O12,0.0,123
28601,Sr6 Fe5 Ag3 Se4 O10,0.0,21
28602,Sr2 Ca1 Pr3 Cu4 O12,0.0,38
28603,Sm4 Al4 Fe4,0.0,38
28604,Sm2 Mn2 Al2 Fe13 C1,0.0,2
28605,Sc3 Te4,0.0,160
28606,Re2 B2 Mo2,0.0,69
28607,Sb2 Pb4 S4 I6,1.2563999999999997,36
28608,Pr1 Co3 Ni2,0.0,191
28609,Pr2 Mn22 C3,0.0,12
28610,Rb2 V6 Cd1 Cu9 O26,0.002200000000000202,6
28611,Pu4 Al4 Fe4,0.0,38
28612,Pr4 U2 Te10,0.0,5
28613,Nd1 Al1 Co4,0.0,38
28614,Nd1 Be1 Cu4,0.0,187
28615,Nd2 Co1 Sb4,0.0,115
28616,Nd1 Fe5 Co5 Mo2,0.0,2
28617,Nb4 C3,0.0,166
28618,Nb4 Cr4 Ni4,0.0,38
28619,Nb3 Al1 Co8,0.0,160
28620,Na2 Zn6 H6 S4 O18,3.3415999999999997,158
28621,Na1 Si34,0.0,216
28622,Nb6 Cu4 S12,0.0,156
28623,Nd3 Er1 Fe34,0.0,8
28624,Na1 Si68,0.045900000000000496,160
28625,Na2 Gd2 Ti2 Nb2 O12 F2,2.3097000000000003,74
28626,Na1 Cd3 Rh8 O16,0.0,6
28627,Na8 Si10 Sn4 O34,0.363,5
28628,Na4 Fe10 O15,0.0007999999999999119,2
28629,Mo1 Pd2 Rh1,0.0,160
28630,Mo4 Cl12,0.2609999999999997,12
28631,Na2 Ca1 Mn3 Si6 O18,0.17149999999999999,1
28632,Mn2 Sb1 As1,0.0,187
28633,Mn1 Cd1 S2,0.4573999999999998,160
28634,Mn1 Cd1 S2,0.5470000000000002,156
28635,Mn1 Cr1 Sb2,0.0,164
28636,Na4 Co12 P8 H4 O37,0.09399999999999986,2
28637,Mn1 Cu3 Se4 O12,0.041100000000000136,2
28638,Mn10 Fe10 Si4 C4,0.0,36
28639,Mn10 Si3 Ge3,0.0,189
28640,Lu1 Co1 C1,0.0,47
28641,Li1 Mo6 Se2 S6,0.0,148
28642,Li4 Ti4 Fe4 O16,1.9829000000000003,62
28643,Li3 Co1 Ni2 O6,0.0,164
28644,Li2 Ag4 N6 O12,1.756,9
28645,La1 Ta2 Ag1 O7,1.5464000000000002,119
28646,La4 Zr4 N4 O8,1.7332,62
28647,La4 Y4 C12,0.0,199
28648,La1 C2,0.0,71
28649,La1 Y2 C6,0.0,12
28650,La2 Bi2 S4 O1 F1,0.0,115
28651,K1 Mg3 Al1 Si3 O11 F1,0.010199999999999765,1
28652,K2 Mg6 Al2 Si6 O22 F2,0.020100000000000007,9
28653,In1 Mo6 Se4 S4,0.0,1
28654,K5 Yb1 Mo4 O16,0.0,10
28655,Ho4 Cd1 S7,1.2779999999999996,8
28656,Ho2 Mn1 Ge4,0.0,38
28657,Ho4 Fe5 Si3,0.0,99
28658,Ho4 Ge8 Ru1,0.0,25
28659,Hf20 Si12 B1,0.0,10
28660,K2 V6 Cd1 Cu9 O26,0.0,6
28661,Fe1 Rh2 Se4,0.0,1
28662,Fe1 Co1 Ni4 S8,0.0,216
28663,Fe1 Co1,0.0,65
28664,Fe4 Mo12 Pd4 N4,0.0,198
28665,Fe6 Ge2 N1,0.0,123
28666,Gd2 Co1 Ni3,0.0,187
28667,Dy3 Tm1 Mn8,0.0,160
28668,Fe4 Cu8 B4 O20,0.2710999999999997,14
28669,Er3 S3 O1 F1,0.47570000000000023,119
28670,Dy1 Th1 C1 N1,0.0,123
28671,Er2 Fe1 Si4,0.0,38
28672,Cu2 Ag2 Se2,0.0,59
28673,Cs1 K1,0.0,65
28674,Dy2 Mn1 Ge4,0.0,38
28675,Cr10 Te12,0.0,2
28676,Cr12 Ga2 Co3 S24,0.0,119
28677,Cs12 Sn2 Sb6 O1,0.2399,164
28678,Hg4 As12 H48 C16 S24 N4,2.1363,15
28679,Dy12 Si16,0.0,8
28680,Cr2 H30 N12 Cl4 O2,2.3633,11
28681,Ce1 Co1 Cu1 Si2,0.0,119
28682,Ce1 U4 C5,0.0,139
28683,Cr12 Fe3 S20,0.0,2
28684,Ce2 Te1 Se1,0.0,123
28685,Ce3 Sc1,0.0,166
28686,Ce4 Zr2 O12,1.9665000000000008,5
28687,Cd10 P6 O26,0.16979999999999995,173
28688,Ca2 U2 Ti4 O14,0.0,74
28689,Ca2 Sm2 Cr2 O8,2.2978,36
28690,Ca4 Y8 Be4 O20,4.030200000000001,33
28691,Ca1 Be1 Ge1,0.0,187
28692,Ce4 V2 Fe2 O12,0.0,14
28693,Ba1 La1 Ti1 Cr1 O6,2.2180999999999997,216
28694,Ba4 Sn8 S12,1.1488000000000005,6
28695,Ba1 Cu6 Te6 Se1,0.23639999999999972,3
28696,Ba3 La1 Ta3 O12,3.1664,160
28697,Al8 Si4 Mo6,0.0,5
28698,Ba2 Pr1 Pb1 O6,0.0,12
28699,Al4 Si2 Ag14,0.0,4
28700,Ba4 Sm2 Nb8 Fe2 O30,1.8448000000000002,7
28701,Cs1 Fe1 Cu1 S2,0.0,119
28702,Al1 V1 Ni2,0.0,123
28703,Ag1 Sn1 Te2,0.0,123
28704,Ag1 Sb1 S2,0.2204000000000006,166
28705,Co5 H78 C12 N18 Cl1 O36,1.9475,2
28706,Ba10 Y5 Fe15 O36,0.6759,2
28707,Ce4 Nb12 O36,0.0,12
28708,Ba3 La3 Pr3 Cu9 O22,0.0,1
28709,C2 Fe6,0.0,182
28710,O4 Cd1 U1,1.9388,166
28711,O10 Na2 Ti3 Sm2,2.0282999999999998,139
28712,O20 Cu8 Lu8,0.2839999999999998,33
28713,Cu1 Zr2 Sb3,0.0,115
28714,Co4 Ge2,0.0,194
28715,Sn2 Tm2 Au2,0.0,186
28716,O12 Cu3 Sr1 Sn4,0.45310000000000006,204
28717,O16 Mg4 Mo6,1.6410000000000005,186
28718,O10 Ti2 Fe4,1.7134000000000005,15
28719,Na1 W1 O3,0.0,221
28720,O8 Al2 W2,0.0,12
28721,P6 In2,0.0,166
28722,Ce4,0.0,194
28723,U2 Ga6 Pd4,0.0,191
28724,Nd2 Ge4,0.0,141
28725,Mn1 Sn1 Pt1,0.0,216
28726,N4 Fe8,0.0,60
28727,O20 Cu8 In8,0.10269999999999957,33
28728,S32 Cr8 Er16,0.0,29
28729,I1 Tl1,1.8128000000000002,221
28730,H6 B6 Cs2,4.3266,225
28731,H4 N4 S28,2.0186,62
28732,O2 Mn2 As2 Nd2,0.08190000000000008,129
28733,Li4 Cu4 P4 O16,0.0,62
28734,Li4 O8 F2 P2 Co2,2.8292,1
28735,Li8 O16 Na8 Fe4,0.28979999999999995,14
28736,O16 Mn12,0.5210999999999997,57
28737,O28 P8 Bi4,0.0,15
28738,Li8 Cu2 P4 O16,0.0,1
28739,Li12 O58 P16 Bi6,0.0,9
28740,Li6 Cu2 P4 O16,0.0,7
28741,O56 Nb20 La4,2.1536,57
28742,Cl12 K4 Tc4,1.6961,9
28743,O56 Nb20 Pr4,1.9449,59
28744,O18 Na8 Si7,4.4437,166
28745,Cu1 Ag1 Te2,0.0,25
28746,Ni2 Cu1 Sb1,0.0,225
28747,Al2 Co6 U4,0.0,194
28748,O20 Cu8 Tm8,0.30810000000000004,33
28749,Li8 Mo8 P8 O40,1.2408,33
28750,Ag6 S3,0.6242999999999999,1
28751,Fe5 Li1 O8,1.1879000000000004,166
28752,Ba2 Nd4 S8,1.9232,122
28753,Ni2 Nb1 Sn1,0.0,225
28754,La4 U2 Se8,0.0,122
28755,Ag2 Au4 S4,0.0,7
28756,Pr4 U2 Se8,0.0,122
28757,Na1 O6 W2,0.0023999999999997357,225
28758,Nd4 U2 Se8,0.0,122
28759,Ba1 Cu1 La1 O6 Ru1,0.0,82