Index,Composition,bandgap,spgN
27520,Ba8 V8 Cu4 Br4 O32,0.24120000000000008,62
27521,Ca8 Al12 Si12 O52,0.1886000000000001,62
27522,As4 P4 H4 Cl12 O4 F24,4.906000000000001,62
27523,Ga8 Si24 H276 C110 S8,3.7138999999999998,148
27524,Dy4 Nb4 Fe30,0.0,194
27525,Lu2 Al2 B28,0.0,74
27526,Zr4 Ti4 Cu4 O20,0.0,19
27527,K12 Y4 Si12 O40,0.6117000000000001,62
27528,H10 C24 N36,0.061100000000000154,1
27529,V4 P4 H4 O22,1.7851,59
27530,Y12 In20,0.0,62
27531,Hf16 Ti8 Ni24,0.0,70
27532,Mo30 Pb4 Se38,0.014300000000000423,167
27533,Ho2 H16 C4 O16 F2,3.8266999999999998,15
27534,U8 S16 O64,0.06519999999999992,61
27535,Na24 Nb8 H8 O16 F56,2.7515,60
27536,Na12 U2 H48 C10 O54,0.2594000000000001,2
27537,Al6 Co2 W18 C6,0.0,194
27538,Ba4 C16 N24,4.2774,62
27539,H10 C24 N36,0.09310000000000018,1
27540,Ho16 Cr8 S32,0.0,29
27541,Ti2 H32 C8 N4 Cl12,2.2126,58
27542,K8 P16 H24 Pt4 O44,2.2698,127
27543,K4 Zn4 Si12 H132 C48,2.7282,14
27544,K4 Zr4 N12 O44,0.0,14
27545,Si40 Bi4 Te8 H292 C100,1.9501,14
27546,Yb8 Mn12 Si20,0.0,128
27547,Al4 B24 H24 C8 Cl24,3.3407999999999998,14
27548,Na4 Ge16 Pb12 O48,0.02660000000000018,58
27549,Rb3 Ho1 Cl6,4.6038,225
27550,Rb2 Li1 Yb1 Cl6,0.0,225
27551,Eu2 Ga2 O6,0.0,194
27552,Ce1 Tl1,0.0,221
27553,Rb2 Tc1 I6,0.0,225
27554,Zn4 H24,4.612,29
27555,Yb6 Co16 Sn8,0.0,186
27556,Th8 W16 O64,4.452400000000001,61
27557,Sr2 Yb1 Cu2 Bi2 O8,0.0,139
27558,Sr4 Cr3 O10,0.0,139
27559,Sr3 Fe2 Ag2 S2 O5,0.9912000000000001,139
27560,Sm10 Si6 N2 O24,2.2619,176
27561,Sr6 Ta4 Ti12 O42,0.0,193
27562,Sr4 La6 Ti4 O20,0.0,6
27563,Sr8 Ca4 Nb4 O24,0.0020000000000000018,81
27564,Rb4 Tm4 I12,0.2506000000000004,62
27565,Rb3 Cr1 F6,4.1105,2
27566,Na2 Fe4 P4 O16,1.7096,2
27567,Mg7 Si8 O24,0.19979999999999976,12
27568,Mg16 Mo12 O48,1.3401999999999998,62
27569,La2 Se6 O24,0.0,176
27570,La10 Si6 O26,0.0,147
27571,K1 H8 W1 N2 F6,2.6507,225
27572,La10 Ni2 Ge6,0.0,193
27573,K3 Mg9 Si12 O36,0.9834999999999998,151
27574,La6 Zn6 Co12,0.0,194
27575,Cu12 Sn12 Pd24,0.0,47
27576,Cs8 Sm8 I24,0.0,47
27577,Er8 Cu8 Mo16 O64,1.4123,61
27578,Cs8 Sb4 F20,3.5313999999999997,62
27579,Cs8 O12,0.0,220
27580,Cr6 Pb10 Cl2 O24,0.5457999999999998,176
27581,Ca14 Al12 Zn4 O35,0.35469999999999935,196
27582,Ba2 Sc12 Ni8 O30,0.0,64
27583,Ba10 Yb4 Zr2 Al4 O26,0.0,194
27584,Al5 Sb3 O16,0.0,12
27585,Zr1 Nb1 B2,0.0,38
27586,Zr4 Al4 V4,0.0,38
27587,Zr4 Fe1 Se8,0.0,12
27588,Zr14 V10 N4,0.0,74
27589,Zn1 Cd1 O2,0.03190000000000004,156
27590,Zr2 Ti1 Sn1 O8,2.8216000000000006,3
27591,Y1 V2 Fe5 Co5,0.0,44
27592,Yb2 V8 O16,0.14670000000000005,2
27593,Yb2 Ru1,0.0,123
27594,Y1 Fe1 Ni4,0.0,187
27595,Yb1 In7 Cu5,0.0,44
27596,Y2 B2 O6,4.2302,11
27597,Y1 In7 Cu5,0.0,44
27598,V1 Fe1,0.0,65
27599,Y2 U4 B24 Rh24,0.0,115
27600,V7 Cu2 S12,0.0,2
27601,V4 Ag1 O10,0.0,8
27602,Tl1 In3,0.0,123
27603,Ti1 Mo1 O4,0.13619999999999965,65
27604,Tm2 Cu6 Te6,0.7786999999999997,148
27605,Ti4 Cr1 C5,0.0,166
27606,Th1 Sc1 B8 Rh8,0.0,115
27607,Th2 Sc4 B24 Rh24,0.0,115
27608,Tb1 Al1 Ni4,0.0,187
27609,Tb2 Si3 Ge1,0.0,44
27610,Sr1 Ti1 Fe4 Bi4 O15,1.8734000000000002,8
27611,Tb4 Fe1 Sn8,0.0,25
27612,Ta1 Nb1 W1,0.0,42
27613,Sr1 Sm3 Ni2 O8,0.6455999999999995,38
27614,Ta3 Cr5 N4,0.0,99
27615,Ta4 Al4 Fe4,0.0,38
27616,Ta12 Cr6 Ni6 C4,0.0,44
27617,Sr1 La2 Ce1 Mn2 Cr2 O12,0.16720000000000024,1
27618,Sr4 Gd8 Be4 O20,2.2333999999999996,33
27619,Sr1 Ca1 Ti1 Mn1 O6,0.0,99
27620,Sr8 Co6 Cl4 O15,0.0,12
27621,Sr2 V11 Ni1 O22,0.7138,38
27622,Sr4 Ce1 Y3 Cu4 Ru2 O20,0.0,99
27623,Sr2 Fe1 Sn1 O6,0.0,225
27624,Sr2 Fe1 Sn1 O6,0.0,123
27625,Sr2 Ce2 Ti5 O15,0.12089999999999979,166
27626,Sm4 Al4 Fe4,0.0,38
27627,Sm2 Co16 Ge1,0.0,160
27628,Sm3 Mg1 Ti4 O14,0.0,166
27629,Si13 Rh20,0.0,147
27630,Sb1 Pb4,0.0,166
27631,Sb4 H4 C8 O20,2.6987,19
27632,Pr2 S2 O2,0.6270999999999995,71
27633,Pd7 O8,0.0,200
27634,Pr10 S18,0.0,5
27635,Os1 Pt3,0.0,166
27636,Nd1 Al1 Sn1,0.0,187
27637,Ni10 Ge2 B4 O20,0.09640000000000004,26
27638,Nd6 Cd5 Si7,0.0,8
27639,Nd2 Pd1 Ru3,0.0,166
27640,Nb1 Au4,0.0,166
27641,Nd2 Ti12 Cu9 O36,0.0,147
27642,Rb6 Ga10 Se20 O61,0.05299999999999999,1
27643,Nb4 Ni6 Ge2,0.0,194
27644,Nb10 Al3 Si3,0.0,42
27645,Nd2 Ga3 Fe14 C2,0.0,12
27646,Na2 Sr4 Nb10 O30,2.4692000000000003,35
27647,Na1 Ca1 Nb3 Bi2 O12,1.4381,107
27648,Na4 Al4 Si6 O20,4.074,43
27649,Na6 Mn4 Cu2 H20 S8 O34,3.9042000000000003,4
27650,Na4 Mg1 V10 H44 O52,1.0964,2
27651,Mn2 Cu1 Ni1 Sb2,0.0,160
27652,Mn2 V3 Ni1 O8,0.0,166
27653,Mn2 Sn1 S4,0.0,10
27654,Mg4 Cu1 O5,0.0,71
27655,Mg3 Cu1 Sn2 S8,0.0,44
27656,Li1 La4 Al1 O8,2.516,65
27657,Mn2 Cr13 S20,0.0,2
27658,Mn3 Al4 Fe1 P4 H16 O28,3.3145,5
27659,Na12 In8 Bi12,0.0,6
27660,Lu4 Mn1 Ge8,0.0,25
27661,La2 Y2 Ti4 O12,0.0,26
27662,La1 Fe1 Cu1 Ni3,0.0,187
27663,La1 Fe6 Co6 B6,0.0,166
27664,La2 Ta2 Bi4 O14,2.1126999999999994,74
27665,La4 Th4 U4 S20,0.0,19
27666,Li1 In1 Te6 Mo6,0.5161000000000007,174
27667,La2 Ga7 Co1,0.0,115
27668,Ho1 Fe1 Ni4,0.0,187
27669,In2 Bi1,0.0,69
27670,Hf1 Ta1 C1 N1,0.0,160
27671,Hf1 Nb1 C1 N1,0.0,160
27672,Hf4 Al4 Pd4,0.0,38
27673,Hf4 V6 Ge2,0.0,194
27674,H2 I2 O8,1.5027,5
27675,Gd1 Ta4 O12,0.0,38
27676,Fe4 As2 P2,0.0,26
27677,Fe4 Si4 Mo4,0.0,38
27678,Fe6 Mo12 Pd2 N4,0.0,4
27679,Fe2 Ni2 B2,0.0,69
27680,Dy1 Al1 Ni4,0.0,187
27681,Fe16 W8 N4,0.0,8
27682,Er2 Al2 Si2,0.01499999999999968,109
27683,Dy1 Fe1 Ni4,0.0,187
27684,Co2 As2 Se2,0.0,10
27685,Cu12 Bi8 S12 Br8,0.0,14
27686,Co12 B2 P2,0.0,5
27687,Cr2 Fe2 Si4,0.0,4
27688,Cr8 Mo4 P12,0.0,6
27689,Co2 Sb1 As1,0.0,187
27690,Ce1 Pr1 O4,0.0,123
27691,Ce1 Pr1 O4,0.0,166
27692,Ce1 U1 C1 N1,0.0,123
27693,Ce1 Nd3 C8,0.0,123
27694,Cr8 Co3 Ni1 S16,0.0,160
27695,Ce2 Zr1 O6,1.8678,139
27696,Cd4 Te5 Pb1,1.2069,44
27697,Ce4 Mn6 Al2,0.0,194
27698,Ce2 Al3 Si1,0.0,25
27699,Ce2 Ni1 Ge3,0.0,187
27700,Cd2 Te1 S1,0.05410000000000004,156
27701,Ca2 Gd2 Co2 O8,1.0957999999999997,36
27702,Ce2 In1 Ag1,0.0,123
27703,Bi1 Pb1,0.0,187
27704,Be1 Fe3,0.0,65
27705,Ba2 Ti4 Fe8 O22,1.5311,15
27706,Ca1 Ti2 Pb1 O6,1.8218999999999994,99
27707,Ca9 Y3 Co4 O24,0.0,1
27708,Ca4 V2 Mo2 O12,0.30989999999999984,14
27709,Ba1 La1 Mn2 O6,0.0,71
27710,Ba1 La3 Ti1 Cr3 O12,1.7832,47
27711,Ba4 Ca4 Cu6 Hg2 O17,0.0,139
27712,Ba1 Sr3 Cu8 B8 O24,0.0,16
27713,Ba3 Sr1 Y8 Cu4 O20,0.1008,6
27714,Al2 Zn1 Se2 S2,1.7538,6
27715,Ba4 Nd2 Ga2 S10,1.6120999999999999,69
27716,Al2 Ni9 Pd1,0.0,123
27717,Ba2 Er2 Zn8 O13,1.3866999999999998,8
27718,Ba4 Si4 H8 O16,4.3164,2
27719,Ba6 Nd6 Co12 O34,0.0,2
27720,Ba2 Fe10 Bi8 O30,0.0,9
27721,Ca8 Sc1 Fe7 Si20 O60,1.1073999999999997,1
27722,Al1 Ni4 As3,0.0,187
27723,Ba6 La2 V6 O24,3.2182000000000004,8
27724,Ba2 Ca4 Tm20 O36,2.7317,1
27725,Ag15 S5 I4 Br1,0.5785,1
27726,Ba1 Ca1 Fe24 O38,1.0186999999999995,187
27727,Ba2 Ca4 Er20 O36,2.8057,1
27728,Mn1 Te1,0.0,225
27729,Be2 B1,0.0,225
27730,O6 Zn2 Sn2,1.3277999999999999,148
27731,Co4 Sn1 Sb12,0.0,204
27732,Li2 Ge1 Hg1,0.0,225
27733,S10 Fe2 Ba2 Nd4,0.0,140
27734,O14 Cu2 Ge4 Sr4,0.0,113
27735,O14 Si2 Mn8,0.8957000000000002,173
27736,O16 Sn4 W4,0.915,52
27737,Pb2 Th2,0.0,123
27738,Ru6 Pu10,0.0,140
27739,Sr4 Pr2 O8,0.0,55
27740,Mn4 Ge6 Ir7,0.0,229
27741,O3 Gd2,2.9035,164
27742,Ga1 La3,0.0,221
27743,Se8 Mo6 In1,0.005399999999999849,148
27744,Ca2 Mn2 Si2,0.0,129
27745,O20 Cu8 Er8,0.31300000000000017,33
27746,Si2 Er1,0.0,191
27747,K2 Mn2 As2,0.0,129
27748,P2 Fe2 Ta8,0.0,124
27749,Ca2 Ti8 Cu6 O24,0.0,148
27750,Ni3 In1,0.0,221
27751,S1 Ag3 I1,0.5324999999999998,146
27752,In10 Bi6,0.0,140
27753,Al4 Pr1,0.0,139
27754,O11 Co4 Ba2 Nd2,0.0618000000000003,47
27755,O12 Ca4 Cr4,0.6156999999999999,62
27756,Li2 C2 O14 P2 Co2,0.0,4
27757,H16 N4 O8 Mo2,3.7408,12
27758,Li12 Cu4 P8 O32,0.0,4
27759,Li8 O16 P4 Cu4,2.008,62
27760,Li4 O8 P2 Cu2,1.4867000000000004,31
27761,Cr2 I6 Cs2,0.0,194
27762,C2 O2 La2,3.0016000000000007,12
27763,Nb6 Au2,0.0,223
27764,Cl2 Ti1,0.0,164
27765,O20 Ge8 Ba4,1.8132000000000001,64
27766,C2 Ce1,0.0,139
27767,O20 Cu8 Y8,0.33110000000000017,33
27768,Ca2 Br12 Th2,2.0416,51
27769,B29 Na2,0.1604000000000001,8
27770,H68 C38,5.4526,4
27771,Na12 Co2 Se8,0.0,186
27772,Li2 Al1 Rh1,0.0,216
27773,Tb2 Co2 Sn4,0.0,63
27774,O40 Na16 S16,3.2692,14
27775,Cr4 P6 O20,0.024099999999999788,11
27776,O8 K12 Fe4,1.1592,92
27777,O16 Mn4 Ba2,1.8622,70
27778,Li2 O24 P8 Mn2,0.6489,4
27779,O24 P8 Mn2,0.0,12
27780,O3 Sr1 Zr1,3.2114000000000003,221
27781,Mg4 Tc2 O8,0.0,74
27782,Bi1 F5 Pb1,4.297000000000001,1
27783,F1 O1 Pr1,5.1636999999999995,216
27784,Bi2 K2 Se4,0.8241,74
27785,Cu2 Mn4 O8,0.0,160
27786,La1 Mn1 O6 Sr1 W1,2.0287999999999995,82
27787,Cu3 Fe1 Nd1 O12 Ti3,0.021600000000000286,148
27788,F4 Na4 Nb4 O24 Ti4 Y4,2.7187000000000006,91
27789,B2 C2 Mo4,0.0,63
27790,O20 Cu8 Ho8,0.32600000000000007,33
27791,Tb2 Ba2 Ti2 Cu2 O11,0.0,123
27792,Ba2 La1 Cu3 O8,0.0,47
27793,Ta12 Si4 Ni8,0.0,227
27794,Mn2 As2 Fe2,0.0,129
27795,O18 V13 Ba1,0.15640000000000054,148
27796,Sn1 Mo6 S8,0.0,148
27797,Li2 C2 O14 P2 W2,2.8866,4
27798,Li6 Mo2 P4 O18,1.4546999999999999,1
27799,O24 P6 Cr4,0.0,148
27800,O8 Co2 La4,0.8839000000000006,64
27801,Fe12 Na4 O20,1.5608,58
27802,Li2 V12 O26,0.5797000000000003,2
27803,Ag1 Cd1 Sb1,0.0,216
27804,Sn1,0.0,139
27805,Sr4 U2 Zn2 O12,1.8036000000000003,14
27806,Rb8 Ag4 C12 S12 N12,3.1003,14
27807,K18 Li6 I4 O26,0.7542,190
27808,Sr8 Zr8 O24,3.3637000000000006,198
27809,As4 P4 Cl12 O4 F20,4.5067,14
27810,Li4 S2 O8,5.9904,63
27811,Sr2 Cu4 B4 O12,0.0,140
27812,K2 B2 C8 O16,3.4882999999999997,63
27813,Pr40 O72,0.0,14
27814,As4 S12 N8 F24,1.483,14
27815,H22 C8 N2 O20,3.4288,2
27816,Ba4 Si4 Cu2 O14,0.11129999999999995,15
27817,Sn4 H16 C8 N4 O16 F4,2.6395,14
27818,Ba2 Nd2 Co4 O11,0.0,25
27819,Ga1 Mo4 Se8,0.2071000000000005,160
27820,Mn4 H32 C8 N4 Cl12,1.6327000000000003,14
27821,Zr3 Al4 C6,0.0,160
27822,Hg4 H20 C6 N2 Cl10,2.8392999999999997,2
27823,Fe2 P8 O24,0.008599999999999941,4
27824,P8 H72 Au8 C24 S24 Cl8,2.8803,61
27825,O10 Nb4,2.5212,15
27826,Rb4,0.0,194
27827,In8 Cu8 O20,0.0,3
27828,Na4 Hg4 Cl12,2.5331,62
27829,Zn16 Si16 O48,3.3916999999999997,61
27830,Ba2 H32 O20,3.7433,1
27831,H16 S4 O20,5.2574,14
27832,Al2 H6 O6,4.5759,1
27833,H8 C2 S2 N4,2.7938,26
27834,Ce6 Al4 I4,0.0,1
27835,Sc9 Ni5 Ge8,0.0,1
27836,Rb1,0.0,139
27837,U4 Al18 Co6,0.0,63
27838,Fe20 C8,0.0,2
27839,Zr48 Cl120,0.0,230
27840,Sn2 S32 I8,0.9752000000000001,43
27841,K16 S32 N16 O64 F32,5.4511,61
27842,Re4 Te8 Cl44 O2,0.08639999999999992,14
27843,K2 Pd1 N2 Cl2 O4,1.727,1
27844,Al1 Ni3,0.0,225
27845,Sb2 P8 O24,0.026699999999999946,15
27846,U17 O31,0.0,8
27847,Cu2 Si4 P6,0.0,8
27848,Ga12 Ag2 Te19,0.6990000000000003,1
27849,Nd1 Pb8 F19,3.5795999999999997,1
27850,Ba3 Pr1 F9,5.8738,1
27851,K3 V5 S10,0.0,1
27852,Ce4 Pb2 S8,0.0,122
27853,Na3 Cr11 Se20,0.0,8
27854,Ce3 Nd2 O9,1.9569,1
27855,Li6 U3 Br18,0.0,5
27856,Ti4 Si16 N8 Cl56,2.5220000000000002,19
27857,In2 Bi74 Br96,1.3903,173
27858,Li4 Ti2 P10 O30,0.2219000000000002,7
27859,Li4 Ti2 P10 O30,0.2597999999999998,11
27860,Nd24 Mn4 S40,1.2959000000000005,1
27861,Ce14 Gd18 O55,1.4871000000000003,1
27862,U7 Cd3 O20,0.0,12
27863,Ta1 Ti9 Al3 Zn23 O48,1.6732,1
27864,In16 W24 O96,4.2477,14
27865,Li4 Mn4 P16 O48,0.042300000000000004,19
27866,Mg2 Ti6 Pb10 W2 O30,1.6852999999999998,129
27867,Li4 Ni4 P16 O48,0.0,19
27868,S4 Ni1 Ga2,0.0,164
27869,Rb4 Li4 H16 S8 N8 O24,5.2524999999999995,2
27870,Cs2 Li2 H8 S4 N4 O12,5.3639,2
27871,Pb2 W2 O8,3.6216000000000004,1
27872,Ca6 Mn2 Co2 O12,0.0,167
27873,Ba16 Co14 O38,0.4315000000000002,1
27874,V8 P18 O64,0.0,114
27875,Ca4 P12 H40 N4 O48,5.119,18
27876,Co25 O40 Ru5,0.005199999999999871,2
27877,B20 H8 Pb8 O44,0.19349999999999978,14
27878,Na4 H20 C4 O16,4.8131,64
27879,Si2 Er1 Pt2,0.0,139
27880,Rb8 H24 Se16 O48,3.7885,19
27881,K8 P8 H8 O28,4.7606,2
27882,Zr4 H28 C4 N16 F20,4.3833,62
27883,Na5 H29 I2 O24,1.8001,2
27884,K4 Ca4 Cr4 H40 C24 O68,3.3606,14
27885,K6 Gd2 H12 C12 O30,2.9734000000000003,2
27886,Co8 H80 C32 N32 O48,2.8516,15
27887,Cr1 Se4 Nb2,0.0,12
27888,Al4 Te4 O16,0.0,60
27889,Ba2 Sr7 I18,3.419,2
27890,Li6 Cu1 F8,0.4052,12
27891,Li4 Cu4 S4,0.7014999999999998,26
27892,Li8 Bi4 O12,1.266,15
27893,Ba1 Sr1 O2,2.2522,123
27894,Sb11 S18,0.0,1
27895,Y2 Cu1 O4,0.0,139
27896,Ta2 As2 O8,2.6966,7
27897,Er4 Te2 O12,2.4522999999999997,136
27898,Tm2 Bi2 O6,2.4417999999999997,148
27899,Li5 Cu1 S1 O2,2.3831999999999995,123
27900,Li2 Zr2 O4,0.0,141
27901,Sc2 H2 O4,3.6663999999999994,194
27902,Y2 Se1 O2,2.0962,139
27903,Lu4 Ga4 O12,3.6376,62
27904,Lu2 H6 O6,3.596,176
27905,Sr2 La2 Br10,2.7305,11
27906,Ti3 Cu3 P6 O24,0.0,146
27907,Na6 Ge2 P2 C2 O14,4.187900000000001,4
27908,Gd6 In2 O12,2.2306,36
27909,Ba4 Ca4 O8,2.8163000000000005,62
27910,Rb12 Sb4 O12,2.7821,14
27911,Li4 I4 O16,2.1837999999999997,14
27912,Li4 Bi4 P8 O28,4.3996,14
27913,Ho18 B8 O38,0.4527000000000001,2
27914,Li8 Sn2 P12 O36,4.2261,15
27915,Th4 Ta18 O53,1.6168,143
27916,Sr7 Bi23 O40,0.0,12
27917,Li14 Bi4 P14 O48,4.462400000000001,13
27918,Li4 Sb4 P8 O28,3.3884,14
27919,Li4 Cu4 P8 O26,0.22040000000000015,11
27920,Bi16 O16 F16,2.9045999999999994,61
27921,Li12 Cu8 F28,0.4478,14
27922,Ca19 Cu24 O46,0.009000000000000341,1
27923,Sr10 Nb10 O32,0.0,31
27924,Th1 U1 O4,0.0,123
27925,Li2 Bi2 P4 O14,3.707,2
27926,Li12 Ag6 F24,0.5616999999999999,148
27927,Ti7 Sn3 O20,1.5248999999999997,65
27928,Li8 Co4 B4 O16,1.4304000000000001,33
27929,Li4 Fe2 P4 O14,3.8886000000000003,2
27930,Li4 Fe4 P4 O16,3.6715,62
27931,Li8 Mn8 Si24 O60,2.9777,64
27932,Li10 Mn2 P6 O22,4.1628,2
27933,V1 Co3 P4 O16,0.0,6
27934,Li12 Mn4 Si24 O60,1.0693000000000001,62
27935,Li4 Mn2 Co6 O16,0.0,9
27936,Co3 Cu3 Te2 O16,0.0,1
27937,Mn6 Fe10 O24,0.4794999999999998,1
27938,Li6 Ti1 Fe3 P6 O24,1.3799000000000001,1
27939,Li20 La12 Nb8 O48,3.5219,1
27940,Li6 Mn2 C6 O18,0.6702,40
27941,Li8 Cu8 F20,0.07329999999999992,62
27942,Li8 Cr4 Si4 O16,1.2517,62
27943,Li4 Fe1 P6 O18,4.3787,1
27944,Li4 Fe4 P8 O28,2.5751999999999997,14
27945,Li2 Fe4 C4 O14,1.495,1
27946,Li2 Fe8 P6 O24,3.0747999999999998,122
27947,Li4 Fe2 P10 O30,1.5992,7
27948,Li20 Fe2 Si4 O20,1.7148,1
27949,Li6 Fe6 Si6 O24,3.05,173
27950,Li4 Fe4 Si4 O16,2.6304,33
27951,Li8 Mn8 P8 O32 F8,0.9674999999999999,33
27952,Li8 Fe10 Ni4 O24,0.7066000000000003,4
27953,Li12 Mn12 Si12 O48,0.19499999999999984,33
27954,Li12 Fe8 P12 O48,2.2005999999999997,5
27955,Li2 Mn1 Ni3 O8,0.12990000000000013,12
27956,Li3 Co2 Si2 O8,0.3763000000000001,1
27957,Li6 Mg1 Ni12 O26,0.6612999999999998,1
27958,Li12 Cr10 P16 O56,2.2840000000000003,2
27959,Li14 Cr9 P16 O56,2.604,2
27960,Li6 V6 P16 O58,1.1872,1
27961,Li6 V6 P16 O58,1.2464000000000002,1
27962,Li8 Mn4 F20,0.8734,14
27963,Mn6 O10 F2,0.0,1
27964,Fe8 O8 F8,1.6587,6
27965,Fe2 O2 F2,1.6772,31
27966,Mn6 O8 F4,0.06800000000000006,1
27967,Li2 Cr2 P4 H3 O16,0.0,1
27968,Li12 Mn8 F28,3.6254,14
27969,Fe14 Si4 O24,1.1102000000000003,15
27970,Mn6 O10 F2,0.0,2
27971,Li3 P2 W1 O8,3.9504,1
27972,Li4 Co2 Si4 O12,3.2331,15
27973,Co6 O2 F10,0.0,6
27974,Li2 P8 W2 O24,3.8487999999999998,4
27975,Li2 Co2 Ge2 O8,1.3635,7
27976,Li2 P6 W4 O26,3.4520999999999997,2
27977,Li4 V4 P8 O28,2.2103,14
27978,Li4 Mn4 C8 O24,0.8051,14
27979,Li7 Fe1 O6,0.3176,1
27980,Li4 Cr2 Si2 O8,1.2997999999999994,31
27981,Li16 V8 P8 O32 F8,2.4724,60
27982,Li4 Mn16 P12 O48,2.8674999999999997,6
27983,Li8 Mn10 O20,0.43679999999999986,2
27984,Li4 Mn6 F16,3.3624,186
27985,Li6 Mn6 Fe3 O18,0.0,2
27986,Li6 Mn10 F30,0.0,100
27987,Li6 Mn2 P2 C2 O14,3.7331000000000003,2
27988,Li2 Mn4 O4 F6,0.0,1
27989,Co6 O2 F10,0.05889999999999995,12
27990,V6 O12 F6,1.5336999999999998,1
27991,Li6 Co6 Ni2 O16,0.0,186
27992,Mn6 O2 F10,0.24,4
27993,Na4 V26 O44,0.0,64
27994,Li6 Co2 O1 F11,0.9772,1
27995,Li6 Fe4 Si4 O16,0.9314,1
27996,Mn12 O10 F14,0.21130000000000004,1
27997,V8 O4 F20,1.561,7
27998,Li4 Fe8 B8 O24,1.5637,1
27999,Li12 Mn2 V6 P12 O48,0.42969999999999997,1
28000,Li4 Fe8 B8 O24,1.6146,1
28001,Li5 Fe8 B8 O24,1.4401000000000002,1
28002,Li4 Fe8 B8 O24,1.6316,1
28003,Li4 Fe8 B8 O24,1.3779,1
28004,Cr12 Cu8 O48,0.11769999999999992,14
28005,Li4 Fe8 B8 O24,1.6688,1
28006,Li12 Mn2 V6 P12 O48,0.2782,1
28007,Li12 Mn2 V6 P12 O48,0.5298000000000003,1
28008,Li13 Mn2 O9,0.010199999999999987,1
28009,Li4 V4 O4 F12,2.1513,14
28010,Li2 V3 P4 O14,2.9492000000000003,2
28011,Li4 Mn4 O2 F12,0.719,1
28012,Li4 Ni2 P4 O14,2.6435999999999997,15
28013,Li3 V1 F7,1.9246000000000003,160
28014,Li10 Mn2 V3 Cr3 O16,1.8132999999999995,1
28015,Ca7 Cu17 O24,0.0,25
28016,Li2 Ni4 O4 F2,2.2543999999999995,129
28017,Na4 Li8 Mn4 C8 S2 O32,3.8861,70
28018,Na4 Li8 Ni4 C8 S2 O32,3.5957999999999997,70
28019,Na4 Li8 Co4 C8 S2 O32,2.5477,15
28020,V2 P4 H16 N4 O16,2.5778,1
28021,Li8 V6 P16 O58,0.5385,1
28022,Na11 Mn13 O32,0.0,1
28023,Li4 Fe3 Cu3 W2 O16,0.0,8
28024,Li11 Ti4 Mn12 O32,0.0,1
28025,Li6 V6 P16 O58,0.3492,1
28026,Li1 Fe5 O5 F1,0.9235000000000002,8
28027,Bi12 O16 F5,0.0,1
28028,Ba4 Ca8 I24,3.6691000000000003,14
28029,Li2 V2 P4 O14,2.0382,9
28030,Li8 V6 P16 O58,0.9803999999999999,1
28031,Li4 Cr2 Co6 O16,0.0,9
28032,Li4 Mn6 F16,3.3394,58
28033,Mn2 Co2 O8,1.1610999999999998,74
28034,Li1 V1 F6,3.2532,8
28035,Li5 V1 F8,2.5606,71
28036,Li2 Mn6 F20,0.5045000000000002,2
28037,Li2 Mn6 O4 F12,0.2762,2
28038,Li2 Fe4 P4 O16,1.4302,7
28039,Li6 V1 Fe1 P2 C2 O14,2.6203000000000003,6
28040,Li6 Zn2 P2 C2 O14,4.3098,11
28041,Li9 Ti7 Nb5 O30,0.0,143
28042,Gd6 As2 O14,2.3103,2
28043,Li8 Mn6 B8 O24,0.6554000000000002,7
28044,Li12 V1 Ni3 P4 C4 O28,1.5977000000000001,6
28045,Li12 Ni4 P4 C4 O28,2.8839,1
28046,Li12 Ni4 P4 C4 O28,2.9358000000000004,1
28047,Mn21 O40,0.0,82
28048,Bi4 S6 O24,3.4488999999999996,15
28049,Ta4 Zn8 O18,2.9471,165
28050,Li6 Bi6 B6 O21,2.9226,5
28051,Mn6 P24,0.0,14
28052,Li8 B20 Sb4 O40,3.3989999999999996,14
28053,Ba8 Zr2 O12,3.1542000000000003,167
28054,Li24 B12 Sb4 O36,3.5961,14
28055,Li20 Si4 Ni2 O20,2.5404,1
28056,V2 Cr1 Fe3 P6 O24,0.0,146
28057,Mn7 Cr1 O16,0.9527,10
28058,Zr8 Bi8 O28,3.1127,4
28059,Co2 Ni4 O8,0.0,227
28060,Li4 Cr1 Cu3 O8,0.0,166
28061,Li4 Ti3 Mn2 Fe3 O16,0.6458000000000004,8
28062,Ta6 In2 O18,2.8472999999999997,11
28063,Li8 Cr8 P8 O32 F8,2.6155999999999997,33
28064,Li24 Mn8 Al8 O32,0.8266999999999998,88
28065,Li4 Co2 H16 C4 O20,3.1877,14
28066,Rb2 Li4 Co4 B6 O18,1.1508,13
28067,Gd4 W4 O18,2.4647,2
28068,Li6 Fe3 Ni1 P6 O24,0.0,1
28069,Li4 Co13 O28,0.40379999999999994,1
28070,Li2 Zn2 Fe14 O24,1.3962000000000003,8
28071,Dy8 Cu8 O20,0.3416000000000001,33
28072,Fe5 Te1 P6 O24,0.7252000000000001,146
28073,Gd4 W8 O30,3.4916,14
28074,Mn5 Cr3 O16,0.5962000000000001,8
28075,Mn1 V4 Cr1 O12,0.20690000000000008,5
28076,Mn3 Co5 O16,0.7014999999999998,8
28077,Li2 Cu1 Ni1 O4,0.0,10
28078,Li3 Mn3 Te1 O8,0.0,12
28079,Mn3 Ni3 Te2 O16,0.0,8
28080,Li4 Y3 Mn1 O8,1.0335,21
28081,Li4 Mn5 Sn3 O16,0.0,1
28082,Li2 V2 As2 C2 O14,1.9692,4
28083,Ni7 P6 O24,0.0,2
28084,Fe2 P4 W2 O16,2.4311000000000003,11
28085,Li6 Mn2 V2 P6 O24,0.0,2
28086,Ba8 La4 I28,2.3073,14
28087,Li4 Mn2 H8 S4 O20,4.2489,2
28088,Li4 Ni4 Sb2 O12,0.0,64
28089,Cr2 Sn2 P4 O16,0.4352000000000005,11
28090,Ba6 La12 O24,3.3569999999999998,15
28091,Sr24 Te8 O48,2.5037,206
28092,K3 Li2 Ta6 P3 O24,0.0,146
28093,Ti1 Mn5 O12,1.3989999999999998,12
28094,Li4 Fe5 Co3 O16,0.0,1
28095,Mn5 Cu1 P6 O24,0.0,146
28096,Cr4 P4 O20,0.0795,2
28097,Ni3 S6 O24,0.0,146
28098,Na2 Li10 Mn4 P4 C4 O28,3.5250000000000004,1
28099,Co6 O2 F10,0.08619999999999994,1
28100,Li6 Co4 P6 O24,0.7849000000000002,5
28101,Li4 Ni4 O8,0.0,12
28102,Li2 V2 Si2 O10,2.0428,11
28103,Na2 V2 As2 C2 O14,2.0021999999999998,4
28104,Mn2 Al2 O6,1.1731999999999996,2
28105,Na16 Co10 O28,0.4219999999999997,2
28106,Mn1 Cr3 P6 O24,0.0,146
28107,Li2 Cu2 S2,0.8512000000000004,194
28108,Li20 La12 Nb8 O48,3.4594,9
28109,Li15 Zr7 Cu6 O28,0.018899999999999917,1
28110,Li8 V12 Co4 O32,0.7871000000000001,1
28111,Li3 Nb1 Ni4 O8,2.0064,12
28112,Li3 Ti1 V4 O8,0.0,12
28113,Li4 Fe8 B8 O24,1.4749999999999999,1
28114,Ti1 Mn1 O4,0.15789999999999993,119
28115,Li8 Fe4 Si24 O60,0.0,64
28116,Li4 Mn3 Sn3 Te2 O16,0.46259999999999923,8
28117,Mn6 Sb2 O16,0.0,186
28118,Li5 Mn2 V5 O12,0.8405000000000005,5
28119,Li4 Mn1 Sn1 W2 O12,1.0090000000000003,1
28120,Fe3 Cu2 Sn1 P6 O24,0.0,146
28121,Li2 Ti3 Ni1 O8,2.2797,160
28122,Mn1 Cr2 Fe3 P6 O24,0.0,146
28123,Mn1 V3 O8,0.0,8
28124,Ti16 N16 O8,1.0034,1
28125,Mn7 Nb1 P12 O48,0.0,1
28126,Li4 Fe4 F20,1.1002999999999998,62
28127,Li4 V3 Sn3 Sb2 O16,0.9329000000000001,1
28128,Li1 V4 O5 F7,0.6233,1
28129,Li4 Fe3 Co3 Cu2 O16,0.0,1
28130,V1 Cr2 Fe3 P6 O24,0.0,146