Index,Composition,bandgap,spgN
30577,Li2 Pr2 Mo4 O16,3.0702000000000007,13
30578,Mn12 Al62 Cu4,0.0,63
30579,La1 Mg8 Al4,0.0,139
30580,La1 Ta2 Cu1 Br1 O7,0.0,123
30581,La6 Fe2 Si2 S14,0.0,173
30582,Lu8 Cr8 O40,0.384,14
30583,K6 Li2 Pb8,0.2197,63
30584,Dy2 Ta10 Ag4 O30,2.5972,127
30585,Ce6 N8 O33,0.022399999999999975,2
30586,Bi12 Sb1 O20,0.3229999999999995,197
30587,Al8 Si2 C8,1.2691999999999997,186
30588,Al16 V10,0.0,217
30589,Zr2 Mn2 Ni2,0.0,74
30590,Zr2 Ti4 Al2,0.0,38
30591,Zr1 B2 Mo3 C2,0.0,38
30592,Zr1 Al1 Co4,0.0,216
30593,Zn5 Pd3,0.0,123
30594,Yb4 Y1,0.0,166
30595,Y2 Mn2 Al2,0.0,74
30596,Y2 Co3 Si1,0.0,166
30597,Y4 Mn2 S8,0.19890000000000008,36
30598,Y4 Cd1 S7,1.2574000000000005,8
30599,Y2 Al1 Co3,0.0,166
30600,V1 Cr1 Mo1,0.0,42
30601,U4 Al4 Fe4,0.0,38
30602,Tl4 Br3 Cl1,2.0156,123
30603,Tl1 In2 Ga1 Se4,0.30110000000000037,23
30604,Ti1 O1 F2,2.0368,123
30605,Tm4 Mn1 S7,0.5606999999999998,8
30606,Ti1 Zn1 Ni2,0.0,123
30607,V1 Co2 Se4,0.0,8
30608,Ti1 Cr1 N2,0.0,166
30609,Th1 Fe4 Ni1,0.0,187
30610,Ti3 Fe2 Bi6 O18,1.4902000000000006,8
30611,Ti16 Ni6 B16 Ru36,0.0,127
30612,Tb1 Dy1 C4,0.0,12
30613,Ta1 Ti1 Be4,0.0,216
30614,Ta4 Nb4 Ag8 O24,1.7058,18
30615,Ta2 Ni1 S4,0.0,164
30616,Sr2 Nd2 Ga2 Cu2 O10,0.0,8
30617,Sr1 La1 Sc1 O4,3.4414,107
30618,Sr4 Eu8 Be4 O20,0.0,33
30619,Sr4 La2 Mg1 Ru2 O12,0.0,139
30620,Sr3 Ti2 Mn2 Bi1 O12,0.0,166
30621,Sr3 Pr3 Mn2 Cu2 O13,0.0,38
30622,Sr16 Cu2 W6 O36,0.0,1
30623,Sr2 Ce1 Y1 Cu2 Ru1 O10,0.0,107
30624,Sm1 Mo6 Se4 S4,0.0,1
30625,Sm1 Be1 Cu4,0.0,187
30626,Sm2 Mn2 Al2 Fe13,0.0,12
30627,Sm2 Ti12 Cu9 O36,0.29380000000000006,147
30628,Si6 Au20,0.0,217
30629,Sm2 Ge1 Ru3,0.0,166
30630,Si32 O64 F2,0.1896,4
30631,Sb2 W10 O30,0.0,67
30632,Pr4 Zr4 N4 O8,1.9661,14
30633,Pr4 Th4 U4 S20,0.0,19
30634,Pr4 Al1 Fe33,0.0,8
30635,Pr1 Fe1 Ni4,0.0,187
30636,Pr1 Er1 Mn4 Co13,0.0,8
30637,Pr3 Er1 Mn6 Fe2 Co26,0.0,8
30638,Nb2 Al2 O8,2.8903,12
30639,Nd2 Mn22 C3,0.0,12
30640,Na1 La1 Ta2 O7,2.2523999999999997,119
30641,Na1 La1 Nb4 O12,1.3404999999999998,69
30642,Na1 La2 Ta1 Ti2 O10,2.3574,1
30643,Ni24 W48 C8,0.0,12
30644,Nd10 Ta30 O90,2.6205,2
30645,Na1 Fe6 H12 S4 O29,0.0,10
30646,Mn1 Hg3 S4,0.0,160
30647,Mn1 Al1 Fe2,0.0,216
30648,Mn1 Fe4 Cu1 O8,0.0,216
30649,Mn1 B4 Mo3,0.0,6
30650,Mn1 V4 Fe1 Pb4 O18,0.33560000000000034,2
30651,Mg1 Sc1 Al1 O4,4.2247,160
30652,Mn14 Si6 O28,0.0,4
30653,Li2 Ti2 Fe2 O8,1.6992000000000003,8
30654,Mg7 Ti1 Al6 Si8 H8 O38,2.5573,143
30655,Li7 Sn4 O12,0.0,5
30656,La1 U1 S2,0.0,166
30657,La2 Ti3 Zn1 O10,2.0540000000000003,119
30658,La2 Ge3,0.0,44
30659,K1 Rb2 Mo1 O3 F3,2.775,42
30660,In1 Cu1 Te2,0.0,160
30661,In1 Ag2 Bi1 Se4,0.07709999999999972,12
30662,K3 Mg4 Si4 O14,0.0,6
30663,Ho2 Ga3 Fe1,0.0,8
30664,K1 Cr20 O40,0.0,87
30665,In8 Sn8 Cl24,1.6494,42
30666,Hf2 Ti2 O8,2.5905,18
30667,Hf1 Ga2 Ag1,0.0,123
30668,Hf3 Ti1 V8,0.0,160
30669,K1 Fe6 H12 S4 O29,0.0,10
30670,Fe6 Ni6 B4,0.0,4
30671,Ga2 Ni7 Ge2,0.0,187
30672,Ga12 O1 F36,1.1024,44
30673,Fe1 Cu1 Rh4 S8,0.0,216
30674,Fe1 Co1 Sn4,0.0,97
30675,Ga4 Fe4 Ge4,0.0,70
30676,Er2 Cu6 Te6,0.7673999999999994,148
30677,Dy2 Fe3 Ni1,0.0,166
30678,Dy4 Te7,0.0,115
30679,Dy4 Cd1 Se7,0.9026999999999998,8
30680,Fe7 Ge4,0.0,187
30681,In23 Se28,0.0,8
30682,Er4 Mn2 S8,0.1275000000000004,36
30683,Er6 S4 O2 F6,1.7392000000000003,9
30684,Cu4 Te4 Se4,0.0,198
30685,Eu2 In3 Cu1,0.0,25
30686,Gd1 V2 Fe10,0.0,71
30687,Co1 Cu2 Ge1 Se4,0.0,5
30688,Cr1 Fe3 B2,0.0,42
30689,Cs12 Sn2 Bi6 O1,0.1618999999999997,164
30690,Er12 Ge22,0.0,8
30691,Ce1 Ga1 Ni4,0.0,187
30692,Ce1 Ga1 Cu4,0.0,187
30693,Ce2 Zr1 O6,1.9323000000000006,71
30694,Ca2 Nd2 Fe2 O8,0.9100999999999999,36
30695,Ca2 Nd2 Cr2 O8,2.2835,12
30696,Ca1 Be1 Si1,0.0,187
30697,Ca11 Si9 As16,0.5645000000000002,1
30698,Ca4 Al4 O10,3.3935,12
30699,Ba2 Sr2 V8 Cu8 O32,0.24929999999999986,122
30700,Ba4 Si4 Ge4,0.16549999999999976,198
30701,Ca8 Be5 Al3 Si18 O56,0.0,5
30702,Ba1 La1 Ti1 Fe1 O6,1.8044000000000002,216
30703,Ca6 Cd4 Ga8,0.0,8
30704,Ba1 Nd3 Co4 O12,0.06899999999999995,6
30705,Al8 B1 C5,0.0,166
30706,Ba3 Nd3 Co6 O16,0.0,12
30707,Ba2 La2 Ni1 W2 O12,3.2975000000000003,166
30708,As4 Pt4 S4,0.0,198
30709,Ba2 Li3 Y3 Mo8 O32,2.3707000000000003,1
30710,As1 Rh1 O4,0.0,65
30711,Ba36 Al9 Sn23,0.14250000000000007,38
30712,Al6 N2 O6,4.091799999999999,166
30713,Ba2 Ce2 Ti2 Fe1 Si8 O26,0.0048000000000003595,5
30714,Ba10 Y5 Cu15 O32,0.0,2
30715,Ba10 Y5 Cu15 O33,0.0,2
30716,Ba10 Y4 Cu2 Mo4 O30,0.0,71
30717,Rh8 Sn26 U6,0.0011999999999989797,223
30718,Cr2 Ge6 Sm2,0.0,194
30719,Sb1,0.0,221
30720,O16 Sr1 Nb6,1.6317,38
30721,O14 Sm6 Re2,0.0,63
30722,O28 Si8 S12 Yb16,0.0,141
30723,O10 P2 Ta2,3.8263999999999996,85
30724,Ni2 Zn1 Ge1,0.0,225
30725,O16 Pd4 Lu8,0.5854000000000004,61
30726,O12 Ga4 Gd4,3.3962000000000003,62
30727,O8 K6 Fe4,0.0,70
30728,Li1 O8 Y1 Mo3,0.0,156
30729,Ca12 Mn8 Si12 O48,0.0,230
30730,Cr4 Sb12 Yb4,0.0,57
30731,Ni2 Zr1 Sn1,0.0,225
30732,Ca2 Tb2 F12,0.0,84
30733,O12 Ru4 La4,0.008000000000000007,62
30734,Ge16 Nb20,0.0,62
30735,Si4 Mn4 Dy4,0.0,62
30736,Si2 Ni2 Nb8,0.0,124
30737,O12 Ti4 Sm4,0.0,62
30738,S10 Co2 Ba2 La4,0.0,140
30739,Cl1 Cs1,4.9881,221
30740,Ca2 Cu2 Bi2,0.0,194
30741,O12 I4,1.8978000000000002,2
30742,Ag2 Bi2 O6,0.0,148
30743,Al6 Hf10,0.0,193
30744,H12 C12 O28 Ba4,2.8525,14
30745,Al4 Th6,0.0,127
30746,H6 B6 K2,5.0099,225
30747,H28 N4 O24 Se8,4.2222,19
30748,H24 O28 S4 K4 Ru2,2.0820999999999996,14
30749,O9 Er6,4.1066,12
30750,K3 Co1 N6 O12,2.6982999999999997,202
30751,O8 Na4 Fe4,2.0607999999999995,33
30752,O4 Cl12 Mo4,2.4587,14
30753,Li2 Cu2 P2 O8 F2,0.10060000000000002,2
30754,Li4 O8 F2 P2 Mn2,3.6757,1
30755,Li4 O8 Ni4,0.0,12
30756,Li2 C2 O14 P2 V2,1.8586,4
30757,Li4 Nb8 P12 O48,0.0,14
30758,Li4 Cu4 P4 O16,0.0,14
30759,Li6 O24 P6 Cu6,0.0939000000000001,146
30760,Li8 O16 P4 Cu4,1.5503,6
30761,Li2 O8 P2 Cu2,0.0,7
30762,Cl4 Br4 Ba4,4.9288,62
30763,Li2 Sc2 I6,0.0,188
30764,Li6 Ge6 Ag4,0.0,134
30765,Al1 Y3,0.0,221
30766,Ag1 Pt3,0.0,221
30767,O8 K1 Ir4,0.00140000000000029,12
30768,O14 Tb6 Re2,0.0,63
30769,Li2 O22 P6 Cr4,2.2253999999999996,5
30770,Li6 O32 P8 Fe6,2.2343,4
30771,Li3 O24 P8 Fe1,0.0,5
30772,Li2 O8 P2 Mn2,3.2613000000000003,43
30773,O8 P2 Mn2,1.0971000000000002,43
30774,Li2 O8 P2 Mn2,3.2386000000000004,2
30775,O24 P8 Mn2,0.5534,15
30776,Ce2 Sm4 S8,0.0,122
30777,Ba2 C2 O6,4.3419,11
30778,Zn2 Fe4 O8,1.4928,74
30779,Al12 Fe6 O24,2.0233999999999996,1
30780,Sc1,0.0,225
30781,Co6 Fe12 O24,1.1935999999999996,152
30782,Nb4 Fe4 O16,1.8479999999999994,3
30783,Li7 O24 Ti12,0.0,6
30784,O18 Ba6 Ir6,0.0,15
30785,Sc4 O4 F4,4.5928,14
30786,Ce6 Pd6 P17,0.0,217
30787,Li2 O8 V2 Cu2,0.25970000000000004,74
30788,O26 V6 Cu10 Tl2,0.017900000000000027,2
30789,Ti2 Cu1 Sb3,0.01729999999999876,115
30790,O8 V2 Cu2,0.1654,74
30791,Br48 Hg56 Sb32,0.0,14
30792,Li2 Mn4 P6 O22,0.9959000000000002,5
30793,Li8 Mo2 O18 P4,1.6212000000000002,12
30794,Mn3 P4 O14,0.07800000000000007,2
30795,Gd4 P8 H36 O40,2.8792,52
30796,Mo10 K2 O26,0.02499999999999991,63
30797,Ca1 V4 Cu3 O12,0.0,2
30798,Bi3 Se4,0.08789999999999942,166
30799,Sr1 O3 Sn1,0.9698000000000002,221
30800,O6 P2 Rb2,4.5235,63
30801,Be2 O4 Zn2,2.6553999999999998,122
30802,Cs4 Li2 F6,5.659000000000001,63
30803,Ti2 S2,0.0,194
30804,K3 Sb2 N2 O6 F7,2.9622,12
30805,Zn4 Ga12 N12 O4,0.09980000000000011,1
30806,H24 C8 S8,3.7157999999999998,14
30807,P12 H72 C12 N12 O36,5.2433000000000005,14
30808,Cu2 B8 O14,0.18770000000000042,63
30809,Mg4 As8 S8 O16 F48,3.5807,14
30810,H10 C2 N2 O4,5.0115,7
30811,F6 Cr1 Zr1,0.0,225
30812,P32 S8 N48 F48,2.2497,14
30813,In6 S8,0.0,227
30814,K8 Sb8 N8 O24 F24,3.2613000000000003,61
30815,I2 N4 O8 F10,1.4645000000000001,2
30816,Cu5 Bi2 B4 O14,0.03869999999999996,1
30817,Zn1 Cu3 H6 Cl2 O6,0.06559999999999988,164
30818,K12 Hg12 S8 Br20 O24,1.999,62
30819,Zn4 Si4 O12,3.4371000000000005,15
30820,Na2 V2 Cd2 O8,2.6646,63
30821,V2 Cu5 H4 O12,0.19210000000000038,2
30822,Cr8 Hg24 O40,1.6543,29
30823,Sb32 Mo16 O96,1.3984,2
30824,Sn12 W4 O24,2.2044,15
30825,Ti4 Cr3 P6 O24,0.0,2
30826,K4 Ni2 H24 C8 O28,3.3201,14
30827,Tl8 Cr2 I12,0.0,128
30828,Sr18 Mg72,0.0,194
30829,H16 C4 Br2 N2,4.7465,11
30830,Ca9 N6,1.3591000000000002,12
30831,Pu4 Co34,0.0,194
30832,Ni12 Mo12 C4,0.0,227
30833,Al10 C6 N2,0.8357000000000001,186
30834,Sr10 Si10,0.0,71
30835,Ti1 Ni1,0.0,221
30836,Fe11 Mo6 C5,0.0,12
30837,Mn1 Sb1 Rh2,0.0,123
30838,Sb4 H64 C16 N8 Cl20,3.2333000000000003,62
30839,Li6 Sn4 P6 O24,2.8054999999999994,148
30840,Yb12 Cs4 F40,0.0,186
30841,Eu4 Na8 Cl20,0.0,62
30842,Na1 H1 O1,3.3548999999999998,160
30843,Al2 H2 O4,4.6632,11
30844,H16 Pt2 O12,1.9379999999999997,1
30845,H20 I4 O24,1.8659,4
30846,H32 N8 O4,4.0837,33
30847,Ca2 H32 O20,3.7409,1
30848,Ba8 H16 O16,4.4174,1
30849,Fe3 Pb4 Cl1 O8,1.0373999999999999,8
30850,U12 Ni2,0.0,1
30851,Mg8 Si8 O24,4.5951,60
30852,Yb12 Fe20 O48,0.0,230
30853,Ba14 Na11 Li5 N6,0.0,216
30854,Ce6 In14 Pt11,0.0,1
30855,Fe8 As10 O26,1.4954,1
30856,Ba8 Re2 W3 O24,0.026799999999999713,166
30857,Ni2 Se2,0.0,194
30858,Sb4 Ru8 C24 Cl28 O24,2.4953000000000003,14
30859,P32 C16 N48 Cl80,3.9850999999999996,61
30860,Ba18 Ta4 N24,1.2429000000000001,2
30861,Li2 Sb2 P8 O24,4.319999999999999,4
30862,Sr5 Ti5 O13,0.0,2
30863,Zr14 N4 O22,3.1558,1
30864,Dy14 Pb3 S24,2.1885000000000003,1
30865,Bi2 Pb3 F12,4.4481,1
30866,Li20 Fe10 Cl40,0.0,1
30867,Rb4 Ag16 I20,1.1359000000000001,1
30868,Mg2 Mo6 S8,1.2532999999999994,2
30869,Re12 Pb12 O40,0.0,141
30870,Ti2 Nb2 Tl2 O8 F4,2.5858,9
30871,K8 N4 O10,0.3607,15
30872,Li9 Bi3 P6 O24,3.7489999999999997,1
30873,Pd42 O48,0.0,10
30874,Cu18 S10,0.0,2
30875,Sm10 Mo72 Se96,0.0,2
30876,Li20 B54 O1,0.0,1
30877,K18 Sn36 F90,0.0,143
30878,Li4 Fe4 P20 O60,0.0036000000000000476,14
30879,Li2 Mo1 P8 O24,0.06990000000000007,1
30880,V5 Fe3 O16,0.8124000000000002,1
30881,Mg4 Al3 H17 O17,2.4294000000000002,1
30882,Nb1 Cr1 O4,0.5449999999999999,65
30883,Li4 Mn4 P4 O16,3.4177,4
30884,Li9 Mn22 O48,0.0,8
30885,Na4 Ca8 V12 Cu8 O48,0.0,142
30886,Ti16 Fe16 O48,1.4863999999999997,1
30887,Na1 Li2 La3 Ti6 O18,1.9293,5
30888,Sr1 La7 Cu4 Sn4 O24,0.0,6
30889,K4 P4 H8 O16,5.333,82
30890,P4 H12,1.4945,1
30891,H16 S8,3.5201,142
30892,Sr2 B5 H2 O11,0.9298,5
30893,Rb1,0.0,229
30894,Li8 Mo4 P8 O32,1.6945999999999999,4
30895,Li6 Mn6 P8 O32,0.3909,4
30896,Fe20 O32 Si4,1.2772000000000001,14
30897,Cu2 H32 Cl4 O32,0.0,14
30898,H4 C20 N12 O8 F32,4.8499,14
30899,Zn3 Fe15 Cu39 Ge6 S64,0.0,1
30900,Li2 Cu1 P6 H20 C2 N6 O22,0.4155,2
30901,Sn8 H40 C16 N8 O36 F8,2.4831,14
30902,Na10 P6 H96 C8 N2 O54 F6,4.4658,2
30903,Na12 Cr4 H40 C24 O68,3.2158,15
30904,Ba4 Sr4 I16,3.4431000000000003,60
30905,Ce1 Zr7 O16,2.264,8
30906,Ba5 Bi3 O11,0.0,38
30907,Li2 Sn2 P2 H2 O10,2.3771,2
30908,Ba4 Y2 F14,6.8971,15
30909,B2 Sb2 O6,3.7620000000000005,2
30910,Li8 W4 S16,1.6913,62
30911,Sn4 P4 O14,2.9406,2
30912,Sr2 La4 O8,3.7880000000000003,141
30913,Ba2 Ca4 I12,3.499,136
30914,Ga6 N2 O6,1.6791,166
30915,Ce4 Nd4 O14,2.0728,227
30916,Hf2 Zr2 O8,4.071999999999999,88
30917,Rb3 Ta3 O9,2.3882,160
30918,Cu8 O12,0.0,14
30919,Tb4 Ca2 O8,4.032,141
30920,Ba6 Zr1 O8,2.6917999999999997,225
30921,Dy4 Ga4 O12,3.6351000000000004,62
30922,Li2 Cu6 O8,0.0,15
30923,Li5 Cu3 Sb2 O10,0.021600000000000286,2
30924,Zr4 Ti8 O24,2.6527999999999996,1
30925,Cs1 Ca1 N3 O6,2.6181,146
30926,Li2 Ag3 F6,0.19779999999999998,1
30927,Ba6 Bi6 O17,0.0,71
30928,Ti3 Nb6 O21,1.3475000000000001,8
30929,Ta7 P16 O56,0.0,148
30930,Li8 Cu8 P8 O32,0.0,29
30931,H8 Ru4 C12 Cl8 O16,3.162,14
30932,Li4 Sb4 P16 O48,4.1585,14
30933,Li16 Cu16 P16 O64,0.0,9
30934,Li4 Cu6 P8 O28,0.0,2
30935,Sc16 O15,0.0,166
30936,Li2 Ti16 O32,0.0,36
30937,Li2 Cu4 P10 O30,0.10329999999999995,7
30938,Li6 Fe2 B10 O20,3.9719999999999995,2
30939,Li2 Si2 Ni2 O8,0.33089999999999975,74
30940,Li10 Fe2 P6 O22,4.1409,2
30941,Li16 Fe8 P16 O64,0.0,61
30942,Al2 Co4 O8,0.0,74
30943,Li6 V2 C6 O18,2.9532,40
30944,Li8 Nb4 Co12 O32,0.7380999999999998,212
30945,Na4 Sn8 O18,1.4813,165
30946,Li4 Fe2 P8 O24,4.0099,14
30947,Mn3 Cr1 Co2 P6 O24,0.0,146
30948,Li4 Mn12 O24,0.4377,1
30949,Li4 Ti3 Fe3 Te2 O16,1.1232999999999995,1
30950,Li4 Mn2 P4 O16,0.6234000000000002,2
30951,Li8 Mn4 Ni10 O24,0.0,4
30952,Mn4 C6 O18,0.6529,2
30953,Li8 Cr8 P8 O28 F8,2.1716,60
30954,Li3 Cr1 P2 H1 O8,2.822,2
30955,Li6 Fe1 Ni9 O20,0.0,2
30956,Fe6 O2 F10,0.9538000000000002,10
30957,Li12 Mn8 P12 O48,0.8166000000000002,13
30958,Li6 V6 P16 O58,0.6582,1
30959,Li6 V6 P16 O58,0.6111,1
30960,Li8 V6 P16 O58,1.1209,1
30961,Li2 V3 O6,1.1098000000000003,1
30962,Li2 Fe3 Co1 O8,0.0,12
30963,Fe12 O12 F12,0.6735000000000002,6
30964,Li4 Co4 P4 O16,2.7779999999999996,33
30965,Li4 Ti2 Co3 Ni3 O16,0.0,8
30966,Nb1 Fe3 Co2 P6 O24,0.0,146
30967,Li4 Mn3 Fe2 Ni3 O16,0.0,1
30968,V8 O8 F8,0.9420999999999995,14
30969,Li3 Cr2 P2 C2 O14,0.11119999999999997,1
30970,Mn6 O6 F6,0.0,31
30971,Li8 V6 P16 O58,0.4547,1
30972,Mn6 O10 F2,0.0,31
30973,Li8 V10 P12 O44,2.3533,14
30974,Li4 P8 W4 O32,3.3890000000000002,14
30975,Li4 V4 P12 O36,2.5322,57
30976,Li3 Co2 C4 O12,0.673,1
30977,Li2 P8 W2 O24,3.9279,15
30978,Li4 P12 W8 O52,3.3183,14
30979,Fe8 O2 F14,1.7312,4
30980,Li12 P8 W4 O36,3.3444000000000003,14
30981,Li4 P12 W8 O52,2.9335,14
30982,Li20 Co2 Si4 O20,1.9408999999999998,1
30983,K8 Li6 Fe4 O16,0.14089999999999997,1
30984,Fe4 C6 O18,1.8141,1
30985,Li12 P12 W8 O48,3.9071000000000002,14
30986,Li8 Fe14 O24,1.2685999999999997,4
30987,Li6 Mn1 V3 P6 O24,1.0054000000000003,1
30988,Li2 Fe1 P4 O12,4.3505,2
30989,Li6 Fe4 Co6 O20,0.0,6
30990,Mn6 O7 F5,0.06780000000000008,1
30991,Mn6 O4 F8,0.0,12
30992,Mn6 O6 F6,0.0,10
30993,Li6 V6 P16 O58,0.7778999999999999,1
30994,Li6 V6 P16 O58,1.2444,1
30995,Li6 V6 P16 O58,1.0102,1
30996,Mn6 O7 F5,0.0,38
30997,Li6 V6 P16 O58,0.9324999999999999,1
30998,Li6 V6 P16 O58,0.9831,1
30999,Li3 V2 O1 F7,2.1573,8
31000,Li10 V2 O8 F2,1.8622000000000003,4
31001,V4 O4 F12,3.0935,33
31002,Li6 Mn2 F10,4.2484,2
31003,Li4 Fe8 B8 O24,1.6739,1
31004,Li5 Fe8 B8 O24,1.5151,1
31005,Li4 Fe8 B8 O24,1.8209000000000002,1
31006,Mn6 O2 F10,0.0,6
31007,Fe8 O2 F14,1.8525999999999998,4
31008,Li6 V5 O12,0.6765000000000003,1
31009,Li4 V3 O4 F8,1.384,1
31010,Li8 Ni1 O5 F1,1.1136,1
31011,Li6 V6 P16 O58,1.014,1
31012,Li20 Mn4 C16 O48,1.0552000000000001,14
31013,Li3 V3 Fe3 P6 H6 O30,1.5067,1
31014,W3 O7 F1,0.0,65
31015,W8 O8 F32,5.0374,15
31016,Li2 Mn4 O6 F2,0.0,166
31017,Li3 Ni3 O3 F3,2.1881999999999997,123
31018,Li12 V10 O24,0.6962000000000002,1
31019,Li4 Si4 Ni2 O12,3.6551,1
31020,Li4 Co4 P4 O16,2.9506000000000006,7
31021,Li16 Fe8 O20,2.1431999999999998,14
31022,Na11 Mn13 O32,0.0,12
31023,Li10 V4 O2 F22,1.479,1
31024,Mn6 O11 F1,0.0,38
31025,Li2 Co4 O2 F6,2.0858,160
31026,Na2 V4 O10,0.4181999999999999,63
31027,Li6 Mn2 Fe6 O16,1.5508000000000002,186
31028,Li8 V1 O5 F1,2.1185,1
31029,Li4 Fe4 Si12 O32,3.1855,15
31030,Li6 V6 P16 O58,0.9948,1
31031,V4 F12,1.7384000000000002,1
31032,Ti8 Sn2 O20,1.7655000000000003,2
31033,Ba8 Ca4 I24,3.551,117
31034,Li4 Sn4 P8 O28,1.5229000000000004,2
31035,Na4 Mn12 O24,0.5113000000000001,15
31036,Li8 V6 P16 O58,0.4153,1
31037,Li6 V6 P16 O58,0.7877,1
31038,Li6 V6 P16 O58,0.9591000000000001,1
31039,Li8 V6 P16 O58,1.0944,1
31040,Li12 Fe8 P12 O48,2.4273,230
31041,Li1 V1 F6,3.23,8
31042,Fe6 O4 F4,1.4501000000000002,14
31043,Li4 Ti2 Ni3 Sn3 O16,0.21760000000000002,8
31044,Li6 Mn1 Fe1 P2 C2 O14,3.6201000000000003,6
31045,Li4 Sc2 P2 C2 O14,4.4398,11
31046,Li6 Fe2 P2 C2 O14,4.2418,4
31047,Co6 P8 O28,0.33899999999999997,2
31048,P16 W4 O52,2.3114,19
31049,Li8 Mn2 Fe4 B8 O24,1.9108000000000003,7
31050,Li4 V4 F16,2.2028,14
31051,Li2 Fe5 Si5 O16,2.117,1
31052,Li12 V4 Si4 O20,1.6548999999999996,33
31053,Li4 Co4 P8 O28,0.8592,7
31054,Li6 Ca3 Mn1 C6 O18 F2,4.701300000000001,1
31055,Li4 Ta4 W4 O24,3.2939,91
31056,Li8 V11 O22,0.8115000000000001,2
31057,Li2 Sn2 P2 C2 O14,3.0130999999999997,4
31058,Ba4 Li4 Ti19 O44,2.2457000000000003,1
31059,Li4 Bi2 P2 C2 O14,3.7498999999999993,4
31060,Li16 V4 S16,0.0,62
31061,Sb4 S6 O24,3.0776,15
31062,Ce2 Cl6 O24,0.0,161
31063,Li6 Bi2 B8 O18,3.9285999999999994,11
31064,Zn2 Se2 O8,2.0654000000000003,31
31065,Li5 Fe6 B6 O18,0.0,8
31066,Ti1 V2 Fe3 P6 O24,0.0,146
31067,Li10 Fe4 Co6 O20,1.665,6
31068,Li4 V4 S4 O16 F12,1.1838,1
31069,Li2 V2 P2 C2 O14,1.4824,11
31070,Li3 Fe4 Ni1 O8,1.1938999999999997,12
31071,Fe2 Se2 O8,1.6350999999999998,63
31072,Li4 V4 O4 F12,1.8377999999999999,19
31073,Li4 Cr4 B8 O20,2.8547,14
31074,Li2 Mn2 V2 P6 O24,0.8234,1
31075,Li4 Ti3 V3 W2 O16,0.13140000000000018,8
31076,Li2 Cr2 B2 O6,2.1998,2
31077,K4 Li2 Fe2 O6,2.0402,67
31078,Li4 Fe2 H8 S4 O20,4.236700000000001,2
31079,Li4 Fe2 B2 O8,2.3322000000000003,31
31080,Li4 Cr8 O16,0.2767999999999997,62
31081,Rb20 Fe4 O16,1.0088,14
31082,Li4 Mn2 Fe6 O16,0.0,186
31083,Li2 V2 Ga2 O8,1.3477000000000001,74
31084,Li6 Ni2 B4 O12,1.1688,2
31085,Li2 Fe2 C2 S2 O14,1.8918,4
31086,Li6 Mn2 V2 P6 O24,0.0014000000000000679,1
31087,Mg4 I8 O24,3.5462,14
31088,Rb2 Fe4 O7,1.7212,162
31089,Li2 Ni1 Sn3 P6 O24,0.0,146
31090,Li5 Mn2 Cu3 O10,0.0,2
31091,Li2 V3 W1 O8,1.5147000000000004,166
31092,Sr8 Ca4 I24,3.5577999999999994,14
31093,Li4 Mn4 Sn2 O12,1.2962000000000002,64
31094,Li3 Mg2 Fe19 O32,1.1775000000000002,1
31095,Ba12 Y4 I36,2.6721000000000004,7
31096,Na4 V2 C2 S2 O14,2.8607999999999993,11
31097,Fe1 Co3 P4 O16,0.5962999999999998,6
31098,Li10 W2 N2 O8,3.5267,36
31099,Li4 Mn5 Cr3 O16,0.0,8
31100,Li8 Mn8 Si8 O28,2.4605,14
31101,Li6 Mn2 Si2 C2 O14,0.8431000000000002,11
31102,Na2 V2 C2 S2 O14,2.0813,4
31103,Ba8 Lu12 O26,2.5346,1
31104,Li2 Mn3 Sn1 O8,0.0,166
31105,Li3 Fe2 Sn1 O6,0.0,12
31106,K2 V2 P2 C2 O14,1.8135999999999999,4
31107,Na4 Li8 Mn4 P4 C4 O28,3.4936,1
31108,Cr3 Cu1 P4 O16,0.0,6
31109,Na12 Ni4 B8 O24,0.044300000000000006,14
31110,Mg4 V12 O28,2.3876,62
31111,Li3 Mn1 V2 O6,0.3508,12
31112,Na2 Li10 Mn4 P4 C4 O28,3.5999000000000003,2
31113,Ti1 Cr3 P6 O24,0.0,146
31114,Na2 Li10 Mn4 P4 C4 O28,3.6196,4
31115,Li5 Cr2 Ni5 O12,0.0,5
31116,Co12 Bi4 O32,0.3960999999999999,1
31117,Li1 Co2 Ni1 O6,0.6084,2
31118,Sn16 P16 O56,3.1008000000000004,76
31119,Ti3 Cr1 P6 O24,0.4171,146
31120,Li8 V12 Cu4 O32,0.5696000000000003,1
31121,Cr3 Ni1 P4 O16,0.00990000000000002,6
31122,Li8 V6 P16 O58,1.1248,1
31123,Ba4 Li1 Bi3 O11,0.0,38
31124,Na6 Ni4 P4 C4 O28,0.0,1
31125,Li3 Mn1 V4 O8,0.8022999999999998,12
31126,Ti3 Mn2 Sn1 P6 O24,0.09860000000000024,146
31127,Ba8 Y4 I28,2.9006000000000003,15
31128,V8 O20,2.08,14
31129,Ti3 Cu2 Sb1 P6 O24,0.03730000000000011,146
31130,Ba8 Y4 I28,2.8272999999999997,14
31131,Al16 O24,5.4415000000000004,61
31132,Li12 P12 W8 O48,3.7784,14
31133,Li4 Ti2 Ni4 O10,2.1225,15
31134,Li8 Fe8 F24,3.2909,60
31135,Li8 Fe8 F40,0.4237000000000002,88
31136,Ti18 O36,3.3083,1
31137,Li3 Fe3 B3 O9,2.6311,174
31138,V1 Fe3 Co2 P6 O24,0.0,146
31139,Li2 Mn2 F8,1.5192,63
31140,Li4 Fe4 F12,3.3346,1
31141,Mn8 O4 F12,0.0,38
31142,Li4 Cr2 P4 O14,2.201,4
31143,Li4 Fe4 F16,3.0836,12
31144,Li4 Mn1 Te3 O12,0.4299999999999997,3
31145,Li6 Mn8 F38,1.3967,2
31146,Li20 Ni8 P12 O48,3.8190999999999997,4
31147,Mn6 O10 F2,0.0,65
31148,Li16 Mn8 F32,3.8341,34
31149,Na24 V8 O32,4.0157,61
31150,Cu4 P12 O36,0.0,2
31151,V4 O7 F5,1.4035000000000002,1
31152,Li3 Cr2 Fe2 O8,0.6440000000000001,2
31153,Na4 Cr8 O26,1.9072,7
31154,Na6 W24 O64,0.0,75
31155,Cr8 B24 H24 O72,2.1189,60
31156,Li16 Sn8 S16 O64,3.9934,61
31157,Nb1 V1 O4,0.0,119
31158,Li3 V1 Cr3 O8,1.3912,2
31159,Li4 Co4 O2 F12,1.1378,1
31160,Mn6 O4 F8,0.11080000000000001,12
31161,Li2 Mn2 P6 H2 O20,1.2315,13
31162,Li20 V12 F56,2.3303,33
31163,Mn8 O4 F12,0.0,63
31164,Ni2 H36 I20 N12,0.7234,14
31165,Co8 O4 F12,0.0,12
31166,Li3 Co5 O1 F11,2.4204,1
31167,Cr6 O16,0.3294,58
31168,V6 O7 F5,0.40359999999999996,1
31169,Li8 O6 Tb1,0.0,148
31170,O6 S2 K4,4.914899999999999,164
31171,Li10 Fe8 P16 O56,1.4982,1
31172,V5 O10,0.5491000000000001,1
31173,Ni6 O8,0.0,12
31174,La8 Nb8 N8 O20,1.678,1
31175,Mn6 O6 F6,0.0,10
31176,Li8 Mn12 V4 O32,0.5,4
31177,Li6 Mn6 O12,0.0,59
31178,Li6 V6 P16 O58,0.8782,1
31179,Li8 Mn6 P8 H4 O32,3.5630999999999995,14
31180,Li4 Mn6 B6 O18,0.6674000000000002,2
31181,Li2 Mn5 P4 O16,3.3165,2
31182,Li5 Fe7 O3 F13,2.4013999999999998,1
31183,Li8 V6 P16 O58,0.8090999999999999,1
31184,Li8 V6 P16 O58,0.7025,1
31185,Li8 V6 P16 O58,0.48729999999999996,1
31186,Li8 V6 P16 O58,0.8056999999999999,1
31187,V6 O8 F4,0.5223,1
31188,Li35 Fe8 O32,0.1133,1
31189,Li4 Mn6 B6 O18,0.36760000000000015,2