Index,Composition,bandgap,spgN
17795,Te8 As8 Se32 S4 O8 F48,1.3994,14
17796,Mo2 S4 N4 Cl10,0.5399,2
17797,Zn8 Ga8 N8 O8,0.0,156
17798,As4 C4 S4 Cl8 F36,3.8103,14
17799,Na8 Sc4 P6 O24,0.3633999999999995,167
17800,Ba42 Si4 O10,0.0,227
17801,Li4 Mn4 Ni2 O12,1.4988,64
17802,Fe4 H48 C8 N8 F20,3.5842,62
17803,Ba1 Mo4 P2 O16,2.0885,121
17804,Na2 Ca2 V2 O8,3.7316,63
17805,Nb4 Br10,0.709,63
17806,Tb2 B2 C3,0.0,65
17807,Cs4 Se2,1.8845,43
17808,Na1 Li5 N2,0.3542,6
17809,Sb4 C4 N4 Cl24,1.9674999999999998,62
17810,H64 Ru2 C16 N8 Cl14,0.15259999999999996,18
17811,In4 Bi2,0.0,191
17812,K4 Cu2 H16 C8 O24,0.7686999999999999,14
17813,K2,0.0,2
17814,Hg16 H96 C32 I40 N8,1.7551,61
17815,Rb6 Pb8 Au2,0.15589999999999993,59
17816,Co4 Cu8 B8 O24,0.08979999999999988,14
17817,Ce2 H6 O6,0.0,176
17818,U3 H2 O10,1.8846,1
17819,Fe4 H4 O8,2.0151,87
17820,Fe4 H14 O13,1.8694000000000002,1
17821,Ge7 H18 O23,2.6785,1
17822,Cs3 Fe2 Cl9,0.5004,164
17823,Os2 C8 Cl4 O8,2.8287000000000004,15
17824,Ba6 Ga2 Co11 O26,0.0,164
17825,Ba8 Y8 Co32 O64,0.5722999999999998,29
17826,La1 Nb2 Cu1 Cl1 O7,0.0,123
17827,Ti1 Pb9 O11,1.7973,75
17828,Co1 Mo12 Se16,0.0,1
17829,Li12 Co6 Cl24,0.011200000000000099,1
17830,Hg1 Mo6 S8,0.0,148
17831,Ce3 N1 F6,0.0,1
17832,Yb3 Sm3 S8,0.0,5
17833,Sr22 Nb10 O47,2.3651999999999997,1
17834,Ca2 C4,2.8514,58
17835,Li6 Mg42 N30,0.07810000000000006,1
17836,Nb20 O39 F21,0.0,47
17837,Re32 Pb32 O108,0.0,160
17838,Li4 Fe2 P4 O16,0.0,4
17839,V4 Bi8 O22,2.7695999999999996,4
17840,Ca6 H6 S6 O27,5.1689,5
17841,Li4 Cr4 P8 O32,1.2457,14
17842,H32 C8 N4 Cl4,5.1211,72
17843,Mo2 P8 O26,1.1881,2
17844,Li6 V4 P10 O36,1.1216000000000002,2
17845,Na4 Fe8 O12,1.3849999999999998,12
17846,V8 Te32 Cl32 O8,0.7834000000000003,88
17847,Li24 Mo16 P24 O112,1.2828000000000004,14
17848,U4 P8 H24 O28,2.5385,14
17849,Li6 Mn20 O40,0.0,8
17850,H32 S8 N8 O20,3.351,62
17851,H88 C40 O12,5.284,43
17852,Cs4 Cu2 H24 S4 O28,0.8262,14
17853,Rb4 P4 H8 O16,4.4694,14
17854,Fe4 H64 C16 S16 N32 Cl8,0.3153999999999999,86
17855,Mn4 H24 S4 O24,4.3118,19
17856,Sr4 Mo4 As4 H12 O32,2.9342,15
17857,Co4 P8 H68 N16 O36,1.1817,14
17858,Sr10 Fe4 Co1 Mo5 O30,0.9554,2
17859,Sr4 Ca4 I16,3.4701000000000004,14
17860,Ti4 O4 F4,0.0,14
17861,Li4 Ag4 F8,1.2719,62
17862,Li2 Ti2 Si2 O8,0.0,74
17863,Ga4 Cu2 O8,0.0,141
17864,Bi6 O8 F2,2.1084,63
17865,Li12 Cu4 S8,2.4626,214
17866,Ba2 Y2 I10,2.7161,15
17867,Sc4 Ga4 O12,4.0845,62
17868,Sm4 Tl4 O12,0.8895,62
17869,Sm2 I2 O2,2.1786999999999996,166
17870,Li2 Sb2 P2 H2 O10,2.6944,2
17871,Li1 Y1 S2,0.37670000000000003,123
17872,Ba2 Nb6 N2 O14,1.5507000000000002,8
17873,Te2 P4 H3 O16,0.0,1
17874,Li2 Bi1 O2,0.0,71
17875,Li8 Sn2 B4 O12,2.5107999999999997,58
17876,Hf8 N8 O4,2.4564999999999997,1
17877,La4 Hf2 O10,4.1804,1
17878,Sm4 Dy4 O12,4.5279,62
17879,Ca2 Y4 O8,3.1247,63
17880,Dy4 Lu4 O12,4.6339999999999995,62
17881,Li2 Nd2 Ti4 O12,2.3145,125
17882,Ba12 Cl8 O8,2.3346999999999998,62
17883,La4 Hf2 O10,3.7213000000000003,63
17884,Li8 Sn8 P8 O32,2.6617,14
17885,Gd5 As2 O12,0.0,12
17886,Li6 Ti2 P4 O16,0.24429999999999996,14
17887,Li4 Sn4 P4 O16,3.3674999999999997,2
17888,Li4 Sn6 P8 O28,2.5153000000000003,14
17889,Li4 Sn4 P16 O48,0.0,20
17890,Li6 Sn6 P8 O32,0.0,4
17891,Ca2 H24 S4 N4 O20,4.7208000000000006,15
17892,Li12 Ti8 P12 O48,0.0,5
17893,Li2 Bi4 P6 O22,3.4454000000000002,5
17894,Li12 Sb8 P12 O48,3.0903,13
17895,Li6 Cu2 F10,0.5449,15
17896,Li12 Bi4 P8 O32,3.9119,14
17897,Na6 Bi2 P8 O28,0.0,2
17898,Sb16 O22 F4,2.25,14
17899,Bi20 O28 F4,2.7263,14
17900,Li2 Zn2 O4,0.0,141
17901,Li7 Cr3 Si2 O12,3.3440000000000003,12
17902,Li4 V2 P4 O14,2.7746999999999997,1
17903,Li4 Cr4 P4 O20,1.4205999999999999,14
17904,Li12 Mn4 P4 O20,2.2055000000000002,33
17905,Li12 Si24 Ni4 O60,1.6989000000000003,64
17906,Li6 Fe4 O12,0.29700000000000004,2
17907,Li2 Fe2 P8 O24,2.3449999999999998,4
17908,Li8 Mn4 V10 O24,1.2321000000000004,4
17909,Li4 Fe4 Si4 O14,2.6997999999999998,1
17910,Li8 Fe4 Si16 O40,3.2157999999999998,19
17911,Li2 Fe2 P8 O24,2.6513,15
17912,Li6 Mn6 Ni3 O18,0.32420000000000027,2
17913,Li4 Ti2 Fe3 Co3 O16,0.0,1
17914,Li12 Mn4 P8 O32,1.2506,1
17915,Li3 Fe5 Ni2 O12,0.22699999999999987,5
17916,Li4 Mn4 P8 O28,0.3032999999999999,14
17917,Li4 Ni4 P4 O16,3.5079000000000002,95
17918,Li4 V1 P6 O18,2.8954999999999997,1
17919,Li6 Mn6 F24,1.6022,144
17920,Li8 Mn8 F24,3.0923,86
17921,Co6 O10 F2,0.0,6
17922,Fe4 O6 F2,0.0,74
17923,Li4 Mn4 F12,3.383,33
17924,Li1 V3 P5 O19,1.0250000000000001,8
17925,Li8 Co4 Si16 O40,3.2712000000000003,19
17926,Li8 Co4 Si16 O40,3.2401,14
17927,Li2 V2 P8 O24,2.5202999999999998,12
17928,Li4 V4 P12 O36,2.3404,62
17929,Li8 Co8 Si12 O36,2.6215,62
17930,Li10 Mn2 O6 F2,2.3167999999999997,1
17931,Li4 P12 W8 O52,3.2761,4
17932,Li8 Mn12 O4 F24,1.7183,1
17933,Li2 V5 P4 O16,2.5774,2
17934,Li4 V4 P16 O48,2.7822,14
17935,Li6 Co6 Si6 O24,0.6967000000000001,148
17936,Li2 Fe4 C8 O24,0.09719999999999995,4
17937,Li3 Ti2 Ni2 O8,0.0,2
17938,Li2 Fe2 P4 O14,2.3635,4
17939,Li6 Ti3 V1 P6 O24,0.009400000000000297,1
17940,Fe4 C4 O14,1.968,2
17941,Li2 Co4 O8,0.5082999999999998,74
17942,Li2 Ni3 Te1 O8,0.46380000000000043,12
17943,Li4 Mn7 O2 F14,1.7582000000000002,12
17944,Na8 Sr4 Li4 V4 P8 O36,1.7614999999999998,33
17945,Li10 Fe5 Co3 O16,0.6031,1
17946,Li8 Mn12 F32,2.8732,14
17947,Li1 Co5 O3 F5,1.4278,8
17948,V6 O12 F6,1.1068,2
17949,Ni6 O2 F10,0.7108999999999999,38
17950,Na7 Mn10 O24,0.0,8
17951,Li2 V3 O3 F5,1.2510000000000001,1
17952,Li1 V2 O1 F7,1.9341,8
17953,Li6 Mn4 F18,2.0383999999999998,1
17954,V4 O4 F4,1.5286000000000004,1
17955,Li6 Mn11 O2 F24,2.1418,1
17956,Na3 Mn20 O40,0.0,1
17957,Cr2 P8 O24,0.05840000000000001,15
17958,Li6 V4 O8 F4,0.95,12
17959,Li2 Fe8 B8 O24,1.4447999999999999,1
17960,Li3 Fe8 B8 O24,1.3969999999999998,1
17961,Li1 Fe8 B8 O24,1.2399999999999998,1
17962,Li2 Fe8 B8 O24,1.6916000000000002,1
17963,Co6 O4 F8,0.08219999999999983,12
17964,Li2 Fe8 B8 O24,1.3325000000000002,1
17965,Li2 V2 Cu2 O8,0.0,63
17966,Li2 V4 O5 F8,0.0,12
17967,Li8 V2 F14,2.6044,15
17968,Li4 Fe8 O2 F16,2.5323,2
17969,Li2 Fe8 B8 O24,1.4796999999999998,1
17970,Li4 Fe2 O2 F6,2.3292,1
17971,Li2 Cr2 C4 O12,3.1033,4
17972,Li8 Mn8 O8 F16,1.021,7
17973,Li4 Mn8 F28,1.5734000000000001,14
17974,Li12 Sn12 P12 O48,3.2845999999999997,14
17975,Li3 Ni8 O4 F12,0.0,2
17976,V20 F44,0.6265000000000001,14
17977,Li2 V1 F6,1.9723,1
17978,Li4 V8 O12 F4,1.2002000000000002,9
17979,Li2 V3 Co1 O8,0.0,166
17980,Li12 Fe5 O16,0.0,1
17981,Na3 Li6 Mn5 O9,0.0,1
17982,Li4 V4 O8 F8,2.4867,29
17983,Mn6 F20,0.03730000000000011,2
17984,Co4 Sn4 O12,0.9832000000000001,62
17985,Li12 V4 F20,2.4749,62
17986,Li4 V3 Co1 P4 O16,0.6162999999999998,6
17987,Li3 V3 O5 F3,1.072,8
17988,Li2 V4 F10,2.2601999999999998,15
17989,Li1 Ni5 O3 F5,2.6608,160
17990,Mn12 O7 F17,0.0,1
17991,Li2 Fe2 P2 O8,3.6846,63
17992,Li4 V4 O10 F4,2.1426,9
17993,Li7 Ti3 Si2 O12,0.0,12
17994,Li24 Bi8 S24,2.1124,2
17995,Li8 Cu16 S12,0.004600000000000826,62
17996,Co2 Ni2 P4 O16,0.0,11
17997,Li4 Fe4 P4 O16,3.6405000000000003,19
17998,Li8 Mn4 O8 F4,0.8597000000000001,5
17999,Li2 Ni2 P4 O14,0.07269999999999999,2
18000,Li4 Co2 C4 O12,2.8048,1
18001,Li4 V4 Si4 O16,2.4949999999999997,14
18002,Li2 Cr4 P4 O16,0.9028999999999998,2
18003,Li3 Mn1 O1 F4,1.1135,8
18004,Li2 Mn7 F16,2.6388,148
18005,Li4 Ti11 O24,2.1514,8
18006,Li6 Ni2 P2 C2 O14,3.4922000000000004,4
18007,Li16 V8 Si4 O32,1.8587999999999998,14
18008,Li8 V8 Si8 O32,2.6415999999999995,29
18009,Li12 Mn4 O10 F4,1.1377,7
18010,Li4 V2 C4 O12,3.0208999999999993,14
18011,Li4 Mn8 O9 F7,0.48429999999999995,1
18012,Li12 V3 Cr1 P4 C4 O28,1.9742000000000002,6
18013,Li8 V8 Si8 O32,2.5729,29
18014,Na10 Bi4 P2 C8 O32,0.0,22
18015,Li34 Sb8 S7,0.0,1
18016,Li4 V4 P8 O32,0.9176,14
18017,V8 Si16 O48,1.496,61
18018,Li4 Fe2 Cu3 Sb3 O16,0.0,1
18019,Li3 Fe4 P6 O24,0.0,2
18020,Li1 Ti2 V3 O10,1.4482999999999997,1
18021,Li4 Fe2 Te1 W1 O12,0.0,1
18022,Cr8 Si8 O26,1.3925000000000005,2
18023,Li8 Ti6 Mn8 Cr4 O36,0.43069999999999986,26
18024,Li14 Sb4 S4,0.7913000000000001,2
18025,Na4 Sn2 P2 C2 O14,0.0,4
18026,Li4 Bi2 S6,0.8880999999999997,2
18027,Li8 Bi4 C8 S2 O32,1.9199000000000002,1
18028,Y6 Tm6 O18,3.1706000000000003,185
18029,Ba8 Y4 Br28,3.9604,14
18030,Al4 Tl4 O12,0.7376999999999994,62
18031,Li6 Bi2 B4 O12,3.2588999999999997,2
18032,Li12 Bi4 B8 O24,3.2286,14
18033,Ho2 Te1 O2,0.5862000000000007,164
18034,Sr2 La2 Cl10,3.3475,11
18035,Li8 Bi4 C8 S2 O32,1.9868,70
18036,Li8 Sb4 S4 O16 F12,4.3691,19
18037,Tb8 Pb8 O28,1.0930999999999997,92
18038,Na12 Sn4 P2 C8 O32,0.0,203
18039,Li8 Ti8 Mn8 Cr2 O36,0.0,26
18040,Li8 Ti8 V8 Co2 O36,1.0827,10
18041,Li1 Zn4 Fe13 O24,1.4142000000000001,8
18042,Li4 Ti3 Cr3 Co2 O16,0.5375000000000001,1
18043,Li6 Cr2 B4 O12,2.0740999999999996,2
18044,Li6 Cr2 O8,0.5812000000000002,13
18045,S4 Nd2,0.0,129
18046,Li5 V2 Ni5 O12,1.2227000000000001,5
18047,Li4 V2 Sn2 P4 O16,2.5808999999999997,11
18048,Ti2 Ni3 Te3 O16,0.5627999999999997,8
18049,Ta4 Mn4 O14,1.9710999999999994,227
18050,Li3 Nb1 V3 O8,0.7048000000000001,12
18051,Mn3 Cr1 O8,0.665,166
18052,Li4 V4 B4 O16,2.6883000000000004,37
18053,Ag20 Hg30,0.0,1
18054,Li9 Ti1 Mn3 P6 O24,0.3246000000000002,1
18055,Ba4 La4 Cl20,3.8800999999999997,62
18056,Ni4 P16,0.0,1
18057,Eu2 Ni1 O4,0.0,5
18058,Li8 Co4 C8 S2 O32,0.041000000000000036,70
18059,Li8 Al4 Co4 O16,1.6962000000000002,62
18060,Mg4 Mn4 O12,0.536,62
18061,Tb4 W2 O12,2.4635000000000007,1
18062,Li12 Ni4 P2 C8 O32,0.0,203
18063,Rb2 Li4 Ni4 B6 O18,0.8729,13
18064,Li8 Ti4 B8 O24,2.8806,1
18065,Li4 Mn4 P4 O16,3.3517,2
18066,Li32 Cr8 O36,0.6639999999999999,2
18067,Li5 Nb2 Co5 O12,0.1726000000000001,5
18068,Li16 Mn2 O12,0.7562999999999999,185
18069,Li4 Co5 Sb3 O16,0.0,8
18070,Mn13 Fe3 O32,0.0,12
18071,Y8 Hf8 O28,4.130199999999999,92
18072,Li8 Ni4 B4 O16,1.0517999999999998,14
18073,Na6 Ni2 B2 S2 O14,2.6897999999999995,11
18074,Li4 V2 Cr4 O12,1.8001999999999998,64
18075,Ti8 Sb8 O28,2.0277000000000003,4
18076,Li6 Mn6 O16,0.0,186
18077,Ti1 Mn3 O8,1.4122999999999999,166
18078,Mn2 V2 O8,0.5005,74
18079,Li4 Cr4 Sn2 O12,3.1686,64
18080,Li4 Fe4 O8,0.3056000000000001,74
18081,Na4 Fe4 C8 S2 O32,0.0,70
18082,Ba6 La4 Cl24,4.0506,2
18083,Sr8 La4 I28,2.7846,4
18084,Nb18 P3 O50,0.0,1
18085,Tm2 Te6 O16,0.0,15
18086,Li8 Zr8 O20,3.8868000000000005,14
18087,Ca4 La4 I20,2.1489000000000003,62
18088,Li2 Nb16 O20,0.0,141
18089,Cr8 W12 O48,3.0223,60
18090,Li2 Fe1 Si3 O8,3.0408999999999997,1
18091,Mn3 Cr3 Te2 O16,0.0,8
18092,Al8 C4 O4,2.662799999999999,33
18093,Li12 Cr4 O16,0.825,91
18094,Li3 Cu3 Te1 O8,0.0,166
18095,Li4 Mn3 V1 O8,0.8244000000000002,2
18096,Ba8 La4 Cl28,4.2082,4
18097,Co6 Ni2 O16,0.3287,186
18098,Li4 Si4 Ni2 O12,3.5469,15
18099,Fe8 O2 F14,0.7885999999999997,38
18100,Li2 Fe2 Si2 O8,1.3112999999999997,74
18101,La12 Mn6 O28,0.0,7
18102,Mn3 Fe3 P6 O24,0.0,146
18103,Fe6 O4 F8,1.2595,6
18104,Ba2 Ca4 I12,3.6368000000000005,15
18105,Li4 Mn2 V3 Cr3 O16,0.4346000000000001,1
18106,Li4 Ti4 V2 O12,1.0692999999999997,64
18107,Mn1 Nb1 O4,0.0,119
18108,Li12 Fe12 P12 O48,2.5969,14
18109,Re8 H24 Pb4 C4 N8 O40,2.4994,14
18110,Fe10 O11 F9,0.0,6
18111,Li10 Mn10 F30,3.4213,2
18112,Li4 Cr4 P12 O36,3.3285,19
18113,Li8 Mn12 Si16 O48,1.2431,62
18114,Na40 V8 O32,0.49529999999999985,61
18115,Mn2 Cr1 O6,0.5397999999999998,12
18116,Li4 Mn4 Co2 O12,1.0768,64
18117,Li6 Co1 Cu3 P4 O16,0.0,1
18118,Ti1 Fe3 P6 O24,0.0,146
18119,Li3 V4 Fe1 O12,0.0,5
18120,Fe4 Sn2 P6 O24,0.05940000000000012,167
18121,Li4 Ti2 Co3 Sn3 O16,0.7030000000000003,8
18122,Li1 Nb7 V12 O48,1.6223,1
18123,Li6 Co3 Sb1 P6 O24,0.4448000000000003,1
18124,Li8 Ti8 Mn8 Co2 O36,0.0,10
18125,Li4 Fe3 Ni2 Sn3 O16,0.0,8
18126,Li4 Cr2 Co3 Sn3 O16,0.0,1
18127,Li2 Fe1 Co3 O8,0.0,160
18128,Ba12 Y8 I48,2.6277,14
18129,Li8 Cr8 P8 O32 F8,1.4027,1
18130,Cr1 Fe3 Sn2 P6 O24,0.037799999999999834,146
18131,Li9 Cr4 C8 S2 O32,0.014699999999999935,5
18132,Li4 Ti2 Cr3 Sn3 O16,0.0,8
18133,Li4 Nb3 V2 Fe3 O16,0.3917999999999999,1
18134,Li9 Fe7 P12 O48,0.0,1
18135,Li14 Fe14 F42,2.624,2
18136,Li8 V8 P8 O40,2.1544,14
18137,Li3 V5 O12,1.2119,5
18138,Li4 Fe8 F20,2.6361999999999997,14
18139,Li10 Mn2 Fe3 Co3 O16,0.7412999999999998,1
18140,Li6 Bi2 B4 O12,2.9356999999999998,2
18141,Fe7 O2 F14,1.0390000000000001,2
18142,Li11 V6 O5 F19,0.8251999999999999,1
18143,Li4 Cr8 P12 O48,0.2913000000000001,57
18144,Li12 Nb6 P16 O58,0.06489999999999974,1
18145,Li4 V3 Co2 Sn3 O16,1.2409000000000003,1
18146,Li6 Mn12 B12 O36,0.44840000000000013,1
18147,Na14 Cu2 O9,0.0,147
18148,Mn6 O5 F7,0.0,8
18149,Li4 Mn8 B8 O24,0.5912999999999999,1
18150,Li3 Mn2 Co2 O8,0.0,2
18151,Li2 Cr4 P10 O32,2.9931,7
18152,Fe6 O7 F5,0.22030000000000016,1
18153,Li2 Fe3 W1 O8,0.0,166
18154,Li24 La12 Nb8 O48,0.0,199
18155,Na10 Mn2 O9,0.2126999999999999,1
18156,Li6 Mn12 B12 O36,0.15379999999999994,1
18157,Li4 Cr16 P12 O48,1.5167000000000002,58
18158,Ti6 P6 O24,0.0,167
18159,Li3 Fe4 Si6 O20,0.05409999999999998,1
18160,Fe6 O2 F10,1.6254,2
18161,Li2 Fe4 F10,3.2451,15
18162,Li3 Fe4 O3 F9,2.1938,1
18163,Li20 Ni16 O32,0.0,1
18164,Fe6 O4 F8,1.4056,14
18165,Mn12 O10 F14,0.0,1
18166,Mn12 O14 F10,0.05180000000000007,1
18167,Li4 Fe4 P4 H8 O20,3.6175,14
18168,Mn12 O10 F14,0.0,1
18169,Na1 Bi12 O20,0.0,23
18170,Li4 Fe2 O2 F6,2.113,12
18171,Li2 Co4 O3 F8,0.6079,2
18172,Na12 V4 O14,0.9095999999999997,7
18173,Fe7 O3 F9,1.931,1
18174,Li4 Fe4 P12 H8 O40,3.6182999999999996,14
18175,Fe6 O2 F10,0.0008000000000001339,12
18176,Li6 Mn12 B12 O36,0.20720000000000005,1
18177,Li32 Fe8 O28,2.5120000000000005,14
18178,Li4 Fe3 Co5 O16,0.0,1
18179,Co6 O4 F8,0.0,2
18180,Fe4 O4 F4,1.1254000000000002,6
18181,Fe4 O4 F4,0.9965999999999999,10
18182,Ta4 Cr2 N2 O10,1.0376000000000003,65
18183,Li2 O6 Re2,0.0,161
18184,Li8 Cr8 P8 H16 O40,1.9992999999999999,29
18185,Na16 Nb2 O12,0.0,1
18186,Li4 Cr2 C6 O18,0.019500000000000003,40
18187,Mn6 O8 F4,0.0,136
18188,Li8 Mn10 Cu4 O24,0.0,4
18189,Li3 Co9 Si6 O24,0.0052000000000000934,1
18190,Li8 Mn12 B12 O36,0.0,6
18191,Li8 Mn8 P16 O56,0.3506,1
18192,Li5 Fe4 O8,1.1427999999999998,160
18193,Ta4 Cr2 N2 O10,1.3552999999999997,1
18194,Mn8 O8 F8,0.006500000000000172,1
18195,Na4 Fe8 O16,0.0,1
18196,Mn12 O14 F10,0.0123000000000002,7
18197,Li2 Cr6 P12 O40,1.7223,41
18198,Mn12 O14 F10,0.0,1
18199,Fe8 O6 F10,1.2903000000000002,1
18200,Mn12 O14 F10,0.0,1
18201,Li16 V20 O48,0.7449999999999997,14
18202,Co10 O5 F15,0.0,1
18203,Li6 V2 O6 F4,3.3379000000000003,9
18204,Li4 Ti2 Ni3 Sb3 O16,0.0,8
18205,Ti7 W6 O30,0.0,1
18206,Li4 Mn8 B8 O24,0.0,2
18207,La2 Mg2 I10,2.6791,9
18208,Li2 Ni10 P6 O26,2.6714,2
18209,Li16 Ni2 O8 F4,3.012,2
18210,Li4 Ni4 P12 O36,4.3664,19
18211,Li8 Mn8 P8 O32,3.5553000000000003,14
18212,Ba10 Y6 Br38,3.4205,2
18213,Eu2 H64 C16 N8 Cl14,0.0,18
18214,Mn1,0.0,225
18215,Li12 Fe6 Si12 O36,2.6240000000000006,31
18216,Li1 V2 Cr1 O6,0.5836000000000001,146
18217,Pd4 Hg4,0.0,198
18218,Mn3 Al1,0.0,225
18219,Na1 Ag3,0.0,139
18220,Pa2 Sb1 Te1,0.0,225
18221,Ti6 Be2,0.0,194
18222,Ti2 Re2 N6,0.0,161
18223,Li14 Mn14 P12 O48 F6,2.9593,173
18224,Ti2 Mn1 Al1,0.05109999999999992,216
18225,Fe3 Ni1,0.0,221
18226,Ca1 Mn4 S8,0.0,166
18227,Zn1 Cr4 S8,0.0,166
18228,Ca2 Ni4 O8,0.0,2
18229,Ca2 Cu4 Si16 O40,1.2573,114
18230,Y4 Cu6 W12 O48,0.28390000000000004,13
18231,Mg2 Mn4 O8,0.0,227
18232,Mg4 Fe2 N4,0.1593,12
18233,Ta2 F10,5.0207,1
18234,Zn4 Bi4 F20,4.36,14
18235,Mg4 Bi4 F20,4.6913,14
18236,Ta4 F20,5.1436,14
18237,Y6 Ni6 O18,0.059699999999999864,185
18238,Ca4 Sn2 Sb2 O12,0.0,11
18239,Ca4 Cu2 Sb2 O12,0.39819999999999967,11
18240,Mg12 Co8 Ge12 O48,2.4464999999999995,230
18241,V2 Zn4 W2 O12,1.6694999999999998,14
18242,Mg6 Cu12 O24,0.0,1
18243,Mg4 Cr2 Ir2 O12,0.0,14
18244,Zn4 Ni4 As4 O20,0.5993999999999999,19
18245,Ca2 Sn1 W1 O6,1.9675000000000002,1
18246,Ca4 Mn8 O16,1.6466,5
18247,Fe3 Ni1,0.0,139
18248,Mn2 Sb1,0.0,216
18249,Si12 Sr2,0.0,63
18250,In1 Ag1,0.0,221
18251,Li4 Co8 P8 O36,0.047800000000000065,62
18252,Na4 Mn4 O8,1.6496,26
18253,Ga2 Bi1 As1,0.0,115
18254,Na1 Li1 Mg6,0.0,38
18255,Mg6 Zn1 Sn1,0.0,38
18256,Mg6 Zn1 Sn1,0.0,38
18257,Li1 Y1 Mg6,0.0,38
18258,La1 Y1 Mg6,0.0,38
18259,Mg15 Si1,0.0,187
18260,Mg15 Co1,0.0,187
18261,Te2 Mo1 W2 S4,0.0,156
18262,Te2 Mo1 W2 S4,0.0,187
18263,Mg14 Ti1 Bi1,0.0,38
18264,Hf1 Mg14 Bi1,0.0,187
18265,Mg14 Bi1 Sb1,0.0,187
18266,La1 Mg14 Cd1,0.0,38
18267,Te2 Mo2 W2 Se2 S4,0.0,156
18268,Te2 Mo2 W2 Se2 S4,0.0,156
18269,Mg14 Zr1 Sb1,0.0,38
18270,Mg14 Zr1 Cu1,0.0,187
18271,Mg14 Zn1 Si1,0.0,187
18272,Ca1 Mg14 Al1,0.0,187
18273,Mg14 Al1 Si1,0.0,187
18274,Mg14 Al1 Cu1,0.0,38
18275,Mg14 Si1 Sn1,0.0,187
18276,Mg14 Ti1 Sn1,0.0,38
18277,La1 Mg14 Sn1,0.0,38
18278,Li1 Mg14 Ni1,0.0,187
18279,Te6 Mo2 W2 S2,0.026100000000000012,156
18280,Te6 Mo2 W2 S2,0.0,156
18281,Na4 Ni4 N4,0.0,62
18282,Te4 Mo3 W1 Se2 S2,0.0,156
18283,Mg6 Mn1 Cr1 O8,0.0,123
18284,Mg14 Al1 Co1 O16,0.7702,123
18285,Mg14 Al1 Ni1 O16,1.9982999999999995,47
18286,Mg30 Ni1 Bi1 O32,1.5705999999999989,123
18287,Mg30 Ni1 Bi1 O32,1.532000000000001,123
18288,Mg30 Ti1 Ni1 O32,0.24480000000000057,123
18289,Sr1 Mg30 Al1 O32,0.46250000000000036,123
18290,Ca1 Mg30 Sn1 O32,1.5142999999999995,123
18291,Ce4 Mg2,0.0,187
18292,Ce6 Mg6,0.0,38
18293,Ce4 Mg2,0.0,164
18294,Mg4 Bi8,0.0,12
18295,Ca8 Mg4,0.0,15
18296,Ce8 Mg4,0.0,63
18297,K1 Li1 Mg30 O31,2.7954,99
18298,K1 Li1 Mg30 O31,2.5836,25
18299,Ba6 V6 F33,0.9068,145
18300,Ca6 Mn12 O24,0.24409999999999998,1
18301,Zn4 Cu8 Mo8 O32,0.9746000000000001,14
18302,Ca4 Co8 O16,0.3870999999999998,7
18303,Mg2 V4 O8,1.3261000000000003,74
18304,Ca8 V8 Si16 O48,2.1804000000000006,61
18305,Sr4 Y2 Cu4 Ni2 O14,0.0,1
18306,Ca4 W6 O16,2.7728999999999995,186
18307,Mg4 Fe4 Ni4 P8 O36,0.21689999999999987,6
18308,V4 Ge8 O24,0.0,14
18309,Mn4 Zn4 Si16 O40,2.8729000000000005,130
18310,Zn4 Cr4 Si16 O40,3.2561999999999998,130
18311,Mg2 Ti2 Sn2 P6 O24,0.0,161
18312,La2 Fe2 W2 O12,1.7712000000000003,7
18313,La2 Mg2 Fe2 Co2 O12,0.7493999999999996,1
18314,La2 Mg2 Fe2 Sb2 O12,1.9064000000000005,7
18315,La2 Ta2 Zn2 Fe2 O12,2.6454000000000004,7
18316,P4 W4 O20,1.6519000000000001,43
18317,Ca2 P4 W4 O20,1.8870000000000005,43
18318,Zn4 Cr4 Bi4 O20,0.7892000000000001,14
18319,Ba6 Y3 Ni6 F33,4.6917,145
18320,Li1 Mn2 O4,0.0029000000000003467,10
18321,Ca4 Ta4 V2 O16,1.1227,15
18322,Ca2 Ti8 O12,0.0,63
18323,Mg4 Nb4 Ag2 O16,0.0512999999999999,1
18324,Ca8 Ni10 Te6 O36,1.7952999999999997,5
18325,Ca2 Co4 O8,0.2939999999999996,63
18326,Ca4 Nb4 Fe2 O16,2.5871,1
18327,Zn2 Co6 P6 O26,0.3877999999999999,11
18328,Mg4 Nb4 Cu2 O16,0.12870000000000026,1
18329,Ga1 Fe1 Ni2,0.0,123
18330,U2 Co2 Ge2,0.0,194
18331,Tm2 Te4,0.0,129
18332,Sr6 Ca2 Co5 Cu3 O24,0.0,3
18333,Sr4 Ca4 Fe1 Co7 O24,0.0,8
18334,Ba6 Sr2 Co1 Cu7 O24,0.0,38
18335,Sr4 Ti4 O10,0.0,46
18336,K4 Na28 V32 O80,0.7664000000000004,9
18337,Tc2 Cl6,0.18800000000000017,12
18338,Mn6 Ge2,0.0,194
18339,Ga4 Bi1 As3,0.0,215
18340,K8,0.0,62
18341,Cs4 Se2,1.8482999999999998,194
18342,Cs4 Se2,1.66,4
18343,Te8 Ir4,0.0,205
18344,Tb2 Ni4 Sb4,0.0,129
18345,Mg15 Sn3,0.0,155
18346,Mg2 Sn10,0.0,8
18347,Y8 Mg4,0.0,63
18348,Mg12 Zn4,0.0,225
18349,Mg8 Zn4,0.0,15
18350,Mg8 Zn4,0.0,63
18351,Mg8 Zn4,0.0,12
18352,Sr10 Mg2,0.0,38
18353,Mg10 Bi2,0.0,8
18354,Mg1 Sn3,0.0,187
18355,Ce8 Mg4,0.0,38
18356,Mg2 Sn2,0.0,59
18357,Mg30 Cd1 Sn1 O32,1.6425,123
18358,Sr8 Mn8 O20,0.0,123
18359,Ba20 Sn8 S32,0.8595000000000006,64
18360,Li1 Ce1 Mg14,0.0,38
18361,Li9 Mn2 Co5 O16,0.5642999999999998,2
18362,Zn8 Fe16 O32,0.7058,160
18363,V2 H38 S4 N6 O27,2.4131,2
18364,Yb1 Pr1 O2,0.0,166
18365,V6 F20,0.7661,3
18366,Ti3 Cr2 Co1 P6 O24,0.0,146
18367,Sc2 Bi2 O6,2.1474,148
18368,Sb4 P20 O60,0.18730000000000002,11
18369,Ni4 P12 O36,0.0,2
18370,Li4 Ni4 P20 O60,0.0,14
18371,Ni6 P8 O28,0.0023999999999999577,2
18372,Co3 P4 O14,0.4210999999999998,2
18373,Cd1 Mo6 Se8,0.0,148
18374,Ba2 Mo6 Se6,0.0,11
18375,Lu1 Mo6 Se8,0.0,148
18376,Cd1 H6 C2 I2 N2 O2,2.7723,2
18377,Na2 Ca2 Si2 O8,0.08589999999999987,11
18378,Hf6 In8,0.0,127
18379,Sr4 Ge12,0.0,139
18380,As8 O12,3.0394,27
18381,Pr2 Al3 Co14,0.0,166
18382,Ca1 Cu3 Pt4 O12,0.0,204
18383,K2 Rb1 Y1 Br6,3.71,225
18384,K3 Mo1 Br6,1.5482,225
18385,K2 Na1 Pr1 Br6,3.8707000000000003,225
18386,K2 Li1 Sb1 I6,1.7108,225
18387,K2 Na1 Nd1 I6,3.1157999999999997,225
18388,K2 Rb1 In1 Cl6,3.6128,225
18389,Na2 Cu1 Pd1 F6,0.0,225
18390,Cs1 Rb2 Ir1 F6,2.1745,225
18391,K2 Tl1 In1 Br6,1.5968,225
18392,Cs1 Rb2 Gd1 Cl6,3.1515,225
18393,Rb2 Tl1 Ag1 I6,0.0,225