Index,Composition,bandgap,spgN
11104,Li4 Ti4 Mn4 O16,0.5552000000000001,95
11105,Li4 Fe4 F12,3.2665,62
11106,Na8 Sn4 C8 S2 O32,0.0,70
11107,Na2 Co2 O4,0.4769000000000001,59
11108,Na6 Li2 Cu2 P2 C2 O14,1.5761000000000003,11
11109,Cr2 Ni3 Sb1 P6 O24,0.0,146
11110,Li5 Fe3 Sb2 P6 O24,1.3685,1
11111,Mn3 Nb1 Cr2 P6 O24,0.0,146
11112,Zr4 N4 O2,0.8702999999999999,2
11113,Li40 Sb8 S32,1.6083,61
11114,Na10 Sn4 P2 C8 O32,0.2669999999999999,15
11115,Li2 V5 Co1 O12,0.0,5
11116,Li2 Nb1 V3 O8,0.13599999999999968,8
11117,Li3 Fe4 O3 F9,2.0221999999999998,1
11118,Li24 V8 F40,2.7168,61
11119,Li4 Cr1 Co2 Ni3 P6 O24,0.0,1
11120,Li1 V6 O7 F5,1.3908,1
11121,Ti3 Fe2 Te1 P6 O24,0.11819999999999986,146
11122,Li4 Ti3 V3 Cu2 O16,0.2677999999999998,1
11123,Ce4 Ni4 O12,0.9323000000000006,62
11124,Li1 V6 O7 F5,0.9873000000000003,1
11125,Li2 Fe6 O4 F12,1.5802999999999998,31
11126,Li3 Fe2 Co2 O8,0.004100000000000215,2
11127,Na7 Nb1 O6,2.7721999999999998,1
11128,Li9 V3 W7 O28,1.5507,160
11129,Li3 V6 O9 F9,1.1042999999999998,1
11130,Li2 Cr4 P6 O24,0.0,15
11131,Er4 Lu4 O12,5.073,62
11132,Li3 V4 O7 F5,0.8786999999999998,1
11133,V2 Co1 O6,1.4907,1
11134,Fe6 O4 F8,0.9068000000000003,65
11135,Fe6 O7 F5,0.0,1
11136,Fe6 O7 F5,0.0,1
11137,Tm10 Ti10 O34,0.0,31
11138,Li6 Cu6 P4 O16,0.7242999999999995,1
11139,Li4 Fe3 Si3 O12,0.9762,1
11140,Li10 Ti2 Fe3 Co3 O16,1.4660999999999995,1
11141,Fe10 O11 F9,0.0,38
11142,Li4 Mn2 Si2 O10,0.5558000000000001,129
11143,Fe10 O4 F16,0.1221000000000001,14
11144,Ag4 Ge4 O12,0.0,1
11145,Li10 Ti2 Mn3 Co3 O16,0.0,1
11146,Na40 Gd8 O32,1.895,61
11147,Li40 Ni8 O32,1.7456,61
11148,Li10 Fe3 Co2 Ni3 O16,0.0,1
11149,Li8 V8 P8 H16 O40,2.0857,29
11150,Li12 Fe2 O8 F2,2.7084,4
11151,Fe6 O4 F8,1.3439,1
11152,Cr4 O3 F9,0.6773,1
11153,Li2 Cr3 Fe1 O8,0.38260000000000005,12
11154,Fe6 O8 F4,0.0,1
11155,Fe10 O14 F6,0.0,1
11156,Fe6 O4 F8,0.26469999999999994,12
11157,Li4 Fe4 O4 F8,1.9024,1
11158,Li4 Ti3 Co3 O12,0.5826000000000002,2
11159,Li2 V2 P6 H2 O20,2.7383,2
11160,Li14 Cu2 O8,1.9921,137
11161,Na40 Cu8 O32,0.05830000000000002,61
11162,Li6 Cu6 P4 O16,0.7003000000000004,1
11163,Co10 O15 F5,0.0,38
11164,Li2 Mn6 B6 O18,0.025600000000000067,2
11165,La12 Al12 O36,4.486599999999999,14
11166,Li20 Mn8 P12 O48,3.8164999999999996,1
11167,Fe8 O6 F10,0.5721999999999998,12
11168,Li4 Co4 O2 F12,1.017,2
11169,Fe10 O14 F6,0.0,6
11170,Li2 Mn2 Si2 O8,0.0,74
11171,Na2 Cr7 O14,0.0,166
11172,Fe10 O14 F6,0.0,1
11173,Fe10 O14 F6,0.0,2
11174,Fe10 O14 F6,0.0,1
11175,Fe8 O10 F6,0.0,4
11176,Na8 Mn4 As2 C8 O32,0.0,70
11177,Li4 Co5 Te3 O16,0.0,1
11178,Li3 Ti2 Co2 O8,0.5937999999999999,2
11179,Li2 Mn6 B6 O18,0.41900000000000004,1
11180,Li4 V10 Cr4 O24,1.2826999999999997,4
11181,Ti6 Mn2 O16,1.8236999999999999,186
11182,Li1 V2 O3 F3,0.9438999999999997,1
11183,Li2 Cr2 Si8 O20,2.1385,1
11184,Li2 Cr2 P6 H16 O26,2.1487,2
11185,Li8 B24 H24 Se8 O72,0.5655,60
11186,Li2 Mn6 B6 O18,0.5445,2
11187,Fe10 O9 F11,0.45610000000000017,5
11188,V4 O6 F2,0.0,12
11189,Li4 Fe2 Cu3 O10,0.0,2
11190,Fe10 O9 F11,0.7869999999999999,6
11191,Li8 V8 F28,1.2155,33
11192,Li8 Fe8 P16 O56,1.2947000000000002,1
11193,Co6 O5 F7,0.6033000000000002,1
11194,Ni4 S8,0.0,60
11195,Li3 V3 Cr2 O10,1.1662999999999997,2
11196,Li4 Mn2 Co3 Sn3 O16,0.0,1
11197,Fe6 O8 F4,0.0,12
11198,Li2 Mn2 P2 H4 O10,3.0371000000000006,31
11199,Fe9 Si6 O24,1.4124999999999999,1
11200,Fe10 O14 F6,0.0,5
11201,Fe10 O14 F6,0.0,1
11202,Co6 O4 F8,0.024700000000000166,2
11203,Li12 Co4 C8 S2 O32,0.0,203
11204,Li24 Fe12 F48,2.6491,14
11205,Fe2 B2 O6,0.5711000000000002,15
11206,Li8 V2 F12,2.4003,55
11207,Li4 Mn4 P4 O16,3.0248999999999997,33
11208,Mg4 Pb2 O8,1.3297999999999996,55
11209,Mn7 O3 F9,0.5702,1
11210,Mn5 O2 F6,0.9224999999999999,8
11211,Th6 F24,6.1267,15
11212,Li12 Si8 Bi4 O28,3.2388000000000003,62
11213,Li4 Si6 Ni2 O16,3.7995,4
11214,Li4 Ni4 P12 O36,4.0023,19
11215,Li8 Fe12 Sn4 O32,0.0,4
11216,Li4 Fe4 Si24 O56,2.6175,72
11217,Li3 Ti2 V1 O6,0.0,12
11218,Na4 Co2 S4,0.0,72
11219,Ga3 Ge1,0.0,221
11220,Lu2 Fe2 Ge4,0.0,63
11221,Rb3 Hg1,0.0,225
11222,Pr2 Ni1 Ir1,0.0,225
11223,Ni1 Au3,0.0,221
11224,Sm2 Fe2 P2,0.10040000000000049,129
11225,Zn2 In6,0.0,6
11226,Sc1 Sn3,0.0,139
11227,Na6 Pt2,0.0,194
11228,Cs2 S1 Cl6 F1,0.0,225
11229,V4 P4 O20,1.7896,43
11230,Fe6 P6 O26,0.049199999999999994,11
11231,Mg1 V4 O8,0.6118999999999999,8
11232,Ca2 Fe4 O8,0.9579999999999997,2
11233,Mg4 Ti8 O16,0.0,59
11234,Ca1 La2 Cr1 O6,0.0,148
11235,Mg2 V3 O8,0.9805999999999999,12
11236,Bi4 O8,0.0,8
11237,Zn4 Cr2 Sb2 O12,2.0248,11
11238,Mg4 V4 O12,0.9187000000000003,62
11239,Zn2 Cr2 Si2 O10,0.5145999999999997,1
11240,Zn2 Fe2 F8,2.6121,1
11241,Ca12 Cu8 Si12 O48,0.42569999999999997,230
11242,Ca4 Ti2 Sb2 O12,0.0,11
11243,Ca4 Ta2 Cu2 O12,0.0,11
11244,Zn6 Cu4 Si8 O28,0.2671000000000001,15
11245,Ca2 Cu2 Si4 O12,0.0,15
11246,Mn2 Zn4 W2 O12,2.1350000000000002,14
11247,Mg6 Fe4 Si8 O28,2.0401000000000002,15
11248,Zn6 Cu12 O24,0.0,8
11249,Ca6 Sn12 O24,1.5864000000000003,8
11250,Mn12 O24,0.02080000000000015,1
11251,Zn4 Cu4 As4 O20,0.3032999999999999,4
11252,Li12 V8 Ge12 O48,0.0,230
11253,Al1 Bi1,0.0,216
11254,Pr2 Co2 P2,0.0,129
11255,Pd2 N4,0.0,71
11256,Y1 Hf1 Mg6,0.0,38
11257,Ba2 Nb4 Fe4 O18,1.2317,36
11258,Mg6 Al1 Bi1,0.0,38
11259,Mg15 Cr1,0.0,187
11260,Nd1 Si2 Ru3,0.0,191
11261,In2 Ag1 Se4,0.0,82
11262,P2 Ni2 Zr1,0.0,139
11263,Mg14 Cr1 Cd1,0.0,187
11264,Sr1 Mg14 Cd1,0.0,187
11265,Na1 Mg14 Bi1,0.0,187
11266,Na1 Mg14 Sb1,0.0,38
11267,Ce1 Mg14 Bi1,0.0,38
11268,Ce1 Mg14 Ti1,0.0,38
11269,Li1 Mg14 Sb1,0.0,187
11270,Te2 Mo3 W1 Se2 S4,0.0,156
11271,Te2 Mo3 W1 Se2 S4,0.0,156
11272,Te2 Mo2 W2 Se2 S4,0.0,156
11273,Te2 Mo3 W1 Se2 S4,0.0,156
11274,Te2 Mo3 W1 Se2 S4,0.0,156
11275,La1 Mg14 Cu1,0.0,38
11276,Y1 Mg14 Sb1,0.0,38
11277,Te2 Mo3 W1 Se2 S4,0.0,156
11278,Ca1 Mg14 Cu1,0.0,187
11279,Mg14 Ni1 Sb1,0.0,38
11280,Te4 Mo1 W3 S4,0.0,156
11281,Te4 Mo1 W3 S4,0.0,156
11282,Te4 Mo1 W3 S4,0.0,156
11283,Te4 Mo1 W3 S4,0.0,156
11284,Te4 Mo1 W3 S4,0.0,156
11285,Te4 Mo1 W3 S4,0.0,156
11286,Na1 Mg6 Ti1 O8,0.0,123
11287,Mg6 Cd1 Cu1 O8,0.0,123
11288,Mg6 Fe1 Cu1 O8,0.0,123
11289,Ca1 Mg6 Cu1 O8,0.0,123
11290,Ca1 Mg6 V1 O8,0.8140000000000001,123
11291,Li1 Ce1 Mg14 O16,0.0,123
11292,Li1 Ce1 Mg14 O16,0.0,47
11293,Sr1 Mg14 Mn1 O16,2.3247,123
11294,Mg14 Ti1 Mn1 O16,0.39170000000000016,123
11295,Ba1 Mg30 V1 O32,1.3273000000000001,123
11296,Mg30 Nb1 Ni1 O32,0.4264999999999999,123
11297,Mg30 Nb1 Ni1 O32,0.4478,123
11298,Hf1 Mg30 Cu1 O32,0.007600000000000051,123
11299,Ca1 Mg30 Si1 O32,1.5879999999999992,123
11300,Ba1 Ca1 Mg30 O32,4.0442,123
11301,Mg30 Nb1 Al1 O32,0.00709999999999944,123
11302,Mg30 Nb1 Al1 O32,0.12100000000000044,123
11303,Mg30 Cd1 Bi1 O32,0.0,123
11304,Ce3 Mg1,0.0,25
11305,Ce8 Mg4,0.0,63
11306,Mg3 Cd3,0.0,187
11307,Na1 Mg30 B1 O31,2.9273999999999996,25
11308,K1 La1 Mg30 O32,4.187099999999999,123
11309,Mg2 Ag6 P6 O26,0.0,11
11310,Sb6 P6 O26,0.9878,11
11311,Ba4 Ca4 Sb4 F28,4.388999999999999,14
11312,Mg2 Cu4 O8,0.0,74
11313,Bi2 W4 O16,0.0,13
11314,Mn4 Zn2 O8,0.030400000000000205,74
11315,Y2 Sn2 W4 O16,0.0,13
11316,Ca8 Sn8 Bi8 O40,0.0,61
11317,Y2 Ta2 W4 O16,1.9435000000000002,13
11318,Mg2 Mn8 O12,0.0,63
11319,W6 O16,1.8159,13
11320,Ca1 Cu3 Bi4 O12,0.0,204
11321,Ta6 Zn3 Fe4 O24,2.5905,2
11322,Ca4 Nb4 Sn2 O16,2.2318,1
11323,Mn4 Zn1 Cu3 O12,0.0,204
11324,Cr4 O10,0.6394000000000001,63
11325,Ge8 Mo4 O24,1.7760000000000002,14
11326,Zn4 Si16 Sn4 O40,2.4243000000000006,130
11327,Mo4 O10,1.5101999999999998,63
11328,Ca2 Ti2 Sb2 P6 O24,0.1698000000000004,161
11329,La2 Mg2 Fe2 Cu2 O12,0.0732999999999997,7
11330,Ti2 Zn2 Sb2 P6 O24,1.2415000000000003,161
11331,Ca4 Cu4 Bi4 O20,0.8046000000000002,14
11332,Zn2 P4 W4 O20,2.7575,43
11333,Ca2 Fe4 P4 O20,0.0,43
11334,Sb8 O16,2.4357999999999995,11
11335,Ca6 Bi12 O24,1.6582999999999997,156
11336,Ba6 Ti6 F33,0.057700000000000085,145
11337,Al4 V12 O24,0.47029999999999994,12
11338,Y2 Ti4 S8,0.0,74
11339,Y2 Mn4 S8,0.0,2
11340,Mg2 Mn9 O13,0.0,2
11341,Zn2 Fe10 O14,1.1696,63
11342,Bi10 Te6 O36,0.24359999999999982,5
11343,Sr2 Cr2 P4 O16,0.10499999999999998,2
11344,Mg2 Ti2 Si2 O10,3.0119,1
11345,Mg2 Mn2 Si2 O10,0.8003,1
11346,Mg2 Mn2 F8,4.0688,1
11347,Mg2 Sn6 P8 O28,1.9404,14
11348,Zn2 Si4 Sn2 O12,3.1413999999999995,15
11349,Mn2 Zn4 Ir2 O12,0.0,14
11350,Mg2 Cu1 W1 O6,0.0,1
11351,Ti2 Al2 W4 O16,0.2755000000000001,13
11352,Mg2 Ti4 O8,0.0,74
11353,Mg1 V4 O10,0.9716999999999998,25
11354,Ca2 Fe4 O8,1.6461000000000001,160
11355,K2 Te2 Pd1,0.8016000000000001,71
11356,Y2 Sn2 Au2,0.0,194
11357,U1 Cu4 Ag1,0.0,216
11358,Sr4 Ca4 Mn8 O24,0.0,123
11359,K3 Na5 V2 Mo6 O24,0.0,6
11360,La28 Sm4 Mn24 Fe8 O80,0.14200000000000035,1
11361,Ba16 Sr16 Co12 Cu20 O80,0.023800000000000043,1
11362,Sm2 Sn2 Au2,0.0,194
11363,Nb2 Ni4,0.0,227
11364,Sm4 Bi2 O1,0.0,139
11365,Ce2 Se4,0.9263999999999999,166
11366,Fe3 Ni3 As3,0.0,38
11367,Bi4 O6,2.4162999999999997,160
11368,Sr15 Mg3,0.0,155
11369,Mg4 Zn8,0.0,15
11370,Y6 Mg2,0.0,139
11371,Mg4 Ga2,0.0,187
11372,Mg2 Ga4,0.0,194
11373,Mg4 Bi8,0.0,12
11374,Ce8 Mg4,0.0,12
11375,Sm2 Mn2 Ge4,0.0,63
11376,Si12,0.5381,63
11377,Er4 Mn8,0.0,12
11378,Ce4 Ga4 Ag4,0.0,28
11379,Sr4 Ca4 Co7 Cu1 O24,0.0,8
11380,Sr2 Ca6 Ti1 Mn7 O24,0.0,38
11381,Eu4 Cu4 O10,0.0,46
11382,Li9 Mn2 Co5 O16,0.3184,8
11383,Li9 Mn2 Co5 O16,0.5408,10
11384,Li9 Mn2 Co5 O16,0.15269999999999984,8
11385,Th1 Pb1 I12,0.6169000000000002,6
11386,V4 Cr2 P6 O24,0.024599999999999955,167
11387,Tl4 Pt2,0.0,69
11388,Ti5 Fe1 P6 O24,9.999999999976694e-05,146
11389,Tm4 Tl4 O12,0.7298999999999998,62
11390,Ti3 Cr2 Cu1 P6 O24,0.0,146
11391,V6 P8 O32,0.8076,15
11392,Li2 Cr2 P8 O26,0.0037000000000000366,1
11393,P2 Pb2 O8,0.0,13
11394,Re4 N8,0.0,62
11395,Tb4 Mn8,0.0,194
11396,Nb8 Cu2 Si2,0.0,124
11397,Cu2 W2 O8,0.0,13
11398,K1 Co2 Mo2 O10,0.6609,12
11399,H12 W2,0.0,12
11400,Yb2 In8 Au4,0.0,11
11401,La4 Mo2 O10,0.8460999999999999,87
11402,K3 Ce1 Br6,0.31479999999999997,225
11403,K2 Nd1 Ag1 I6,2.5576,225
11404,Rb2 Hg1 Ir1 F6,0.0,225
11405,K3 Ce1 Cl6,0.34399999999999986,166
11406,Na2 Ga1 Ag1 F6,1.5779,225
11407,K2 Al1 Tl1 Cl6,3.6783,225
11408,Rb2 In1 Au1 Br6,0.0,225
11409,Cs1 Rb2 As1 I6,2.3568,225
11410,K2 In1 Au1 Cl6,0.0,225
11411,K2 Bi1 Au1 Br6,0.23720000000000008,225
11412,K2 In1 Hg1 Br6,0.0,225
11413,K2 As1 Au1 Cl6,0.09579999999999989,225
11414,Cs2 K1 Tl1 I6,0.46879999999999994,225
11415,Cs2 Sm1 Au1 Cl6,2.0556,225
11416,Rb2 Y1 Hg1 Br6,0.0,225
11417,Rb2 Tl2 I6,0.0,225
11418,Rb3 Al1 I6,1.9042,225
11419,Mg2 Cu2 F8,0.9113000000000002,1
11420,Na8 Mn16 Bi8 O48,0.0,146
11421,La2 Cu1 N2 Cl2,0.0,139
11422,Li6 Mn2 Co2 O10,0.12290000000000001,8
11423,Li4 Mn1 Co3 O8,0.01670000000000016,2
11424,Li4 Mn1 Co3 O8,0.017899999999999583,2
11425,Li6 Mn2 Co2 O10,0.0,8
11426,Li6 Mn2 Co2 O10,0.032600000000000406,1
11427,Li7 Co5 O12,0.012900000000000134,12
11428,Li8 Co6 O14,0.12760000000000016,12
11429,Li8 Mn2 Co4 O14,0.4770000000000003,2
11430,Li8 Mn2 Co4 O14,0.24289999999999967,2
11431,Li7 Mn2 Co3 O12,0.13310000000000022,12
11432,Li7 Mn2 Co3 O12,0.3193999999999999,12
11433,Li7 Mn2 Co3 O12,0.2885000000000004,12
11434,Li7 Mn2 Co3 O12,0.5048999999999997,12
11435,Li7 Mn2 Co3 O12,0.3813000000000004,12
11436,Li8 Mn2 Co4 O14,0.36549999999999994,2
11437,Li7 Mn2 Co3 O12,0.0,12
11438,Li8 Mn2 Co4 O14,0.26839999999999975,12
11439,Li8 Mn2 Co4 O14,0.3580000000000001,5
11440,Li8 Mn2 Co4 O14,0.3410000000000002,5
11441,Li6 Mn3 Co1 O10,0.0,1
11442,Li6 Mn3 Co1 O10,0.02450000000000019,1
11443,Li7 Mn2 Co3 O12,0.0817000000000001,2
11444,Li7 Mn2 Co3 O12,0.0,2
11445,Li7 Mn2 Co3 O12,0.0,6
11446,Li7 Mn2 Co3 O12,0.0,8
11447,Li7 Mn2 Co3 O12,0.0,1
11448,Li7 Mn2 Co3 O12,0.0,1
11449,Li7 Mn2 Co3 O12,0.0,8
11450,Li9 Co7 O16,0.5385999999999997,2
11451,Li9 Co7 O16,0.0,12
11452,Li9 Co7 O16,0.5400999999999998,12
11453,Li9 Co7 O16,0.5682999999999998,2
11454,Li9 Co7 O16,0.3441000000000001,2
11455,Li9 Mn2 Co5 O16,0.5082999999999998,2
11456,Li9 Mn2 Co5 O16,0.1578999999999997,2
11457,Li9 Mn2 Co5 O16,0.5425999999999997,2
11458,Li9 Mn2 Co5 O16,0.0,2
11459,Li9 Mn2 Co5 O16,0.0,2
11460,Li9 Mn2 Co5 O16,0.0,2
11461,Li9 Mn2 Co5 O16,0.0,2
11462,Li9 Mn2 Co5 O16,0.018299999999999983,2
11463,Li9 Mn2 Co5 O16,0.46850000000000014,2
11464,Li9 Mn2 Co5 O16,0.5686999999999998,1
11465,Li9 Mn2 Co5 O16,0.4729000000000001,2
11466,Li9 Mn2 Co5 O16,0.2697000000000003,2
11467,Li9 Mn2 Co5 O16,0.0,1
11468,Li9 Mn2 Co5 O16,0.08770000000000033,1
11469,Li9 Mn2 Co5 O16,0.5966,1
11470,Li9 Mn2 Co5 O16,0.5827,1
11471,Li9 Mn2 Co5 O16,0.5392999999999999,1
11472,Li9 Mn2 Co5 O16,0.4668000000000001,1
11473,Li9 Mn2 Co5 O16,0.20319999999999983,1
11474,Li9 Mn2 Co5 O16,0.4786999999999999,1
11475,Li9 Mn2 Co5 O16,0.6472000000000002,1
11476,Li9 Mn2 Co5 O16,0.7948999999999997,1
11477,Li9 Mn2 Co5 O16,0.28390000000000004,1
11478,Li9 Mn2 Co5 O16,0.3944000000000001,12
11479,Li9 Mn2 Co5 O16,0.0,12
11480,Mn1 Nb4 O12,1.5081,1
11481,Li2 V2 P2 O10,1.5200000000000002,2
11482,Li3 V6 O9 F9,0.9358,1
11483,Li1 Mn2 Co2 O8,0.0,2
11484,Li4 V2 Co3 Cu3 O16,0.0,1
11485,Li8 Ti2 Co16 O36,0.14959999999999996,26
11486,Li4 Nb3 Ni3 Te2 O16,0.0,8
11487,Li4 Mn3 V2 Cr1 P6 O24,0.5233999999999996,1
11488,Li3 V2 O4 F4,0.0,1
11489,Li4 Fe5 Ni1 O12,0.04939999999999989,12
11490,Li16 Cr8 C16 S4 O64,0.7611999999999999,1
11491,Li3 Mn2 Si2 O8,0.0,1
11492,Li3 Mn2 Si2 O8,0.0,5
11493,Li6 Fe2 O2 F6,2.9765999999999995,1
11494,Li6 Fe4 O2 F10,2.8681,1
11495,Li6 Cr8 P10 O48,1.008,9
11496,Li3 Co3 Sb1 O8,0.4447000000000001,2
11497,Li6 Cr8 P10 O48,0.9985999999999999,1
11498,Li16 Fe8 Si8 O40,0.27479999999999993,14
11499,Li2 Cr1 Fe3 O8,0.0,166
11500,Li8 Cr4 Fe12 O32,0.0,1
11501,Li8 Cu4 Si16 O40,0.5204,19
11502,Li11 Cr3 Fe3 O16,0.0,1
11503,Li4 Co4 Ni2 O12,0.0,2
11504,Fe18 O18 F18,0.0,6
11505,Fe8 O6 F10,1.1445,1
11506,Fe6 O8 F4,0.0,5
11507,Fe10 O6 F14,0.5117,31
11508,Cr2 Fe3 P6 W1 O24,0.0,146
11509,Ce16 Hf16 O64,1.5240999999999998,198
11510,Ba10 Y6 I38,2.6124,2
11511,Ta2 O5,3.3026,5
11512,Sr2 O12,0.0,15
11513,Na4 As8 O24,0.8386,14
11514,Mg1 O2,2.3662,12
11515,Ge7 H18 O23,2.4741,1
11516,Mg12 B8 H36 S4 O52 F4,4.2645,62
11517,Ba1 Dy1 O3,0.0,221
11518,Ba2 V2 O5,0.0,123
11519,Ba1 Eu3,0.0,221
11520,Ca2 Pm6,0.0,194
11521,Cd3 Ni1,0.0,221
11522,Ce1 Nd3,0.0,221
11523,Ce2 Mg1 Pb1,0.0,225
11524,Ce1 Tm3,0.0,139
11525,Cs1 Np1 O3,0.0,221
11526,Ce2 Sm6,0.0,194
11527,Cu3 Ag1,0.0,139
11528,Dy3 Hg1,0.0,221
11529,Er2 Cu1 Tc1,0.0,225
11530,Er3 Ga1,0.0,221
11531,Ga3 Hg1,0.0,139
11532,Fe6 Sb2,0.0,194
11533,Eu1 Mo1 O3,0.0,221
11534,Ho2 Mg1 Tc1,0.0,225
11535,La1 Yb3,0.0,225
11536,Lu3 Hg1,0.0,221
11537,Lu2 Cd1 Tc1,0.0,225
11538,Mg16 Al12 Fe1,0.0,160
11539,Mg16 Al12 Te1,0.0,160
11540,Mg16 Ta1 Al12,0.0,160
11541,Mg16 Ta1 Al12,0.0,217
11542,Mg1 Pt5,0.0,38
11543,Na3 Ga1,0.0,225
11544,Na6 Ga2,0.0,194
11545,Sb2 Pb6,0.0,194
11546,Tb1 Bi3,0.0,139
11547,Tm2 Al1 Ru1,0.0,225
11548,Tm3 Hg1,0.0,221
11549,Tm3 Sn1,0.0,139
11550,Zn1 Co1,0.0,187
11551,Y3 Ga9 Ni6,0.0,65
11552,H10 Se2 N2 O6,4.467,2
11553,K2 Co1 P2 H6 O8,3.0126,12
11554,Dy2 Fe17 N3,0.0,166
11555,Ba2 Mn4 O16,2.0134,70
11556,Li12 Tl12,0.0,64
11557,Hg4 N4 O16,0.0,14
11558,Ce2 Mn3 Cu9 P7,0.0,174
11559,V4 Cu6 O18,0.1944999999999999,11
11560,Ba8 Fe6 Se20,0.0,14
11561,Zn6 Ag2 As6 O24,0.0,15
11562,Dy4 Al10 Fe24,0.0,63
11563,Na4 Zn1 P4 H16 C2 N2 O16,4.5909,2
11564,Na4 Zr4 P8 O32,0.007000000000000006,13
11565,Fe64 O96,1.5429000000000004,92
11566,Mn4 Be4 P4 O20,0.7541,14
11567,Cd4 P8 H40 N8 O32,3.8783,14
11568,Te8 P4 O28,0.0,29
11569,P4 H28 N8 O16,5.4089,19
11570,Cr8 Bi8 O40,0.1946000000000001,61
11571,Ga4 P8 H60 C20 N8 O32,4.5532,14
11572,Cu8 Re12 S24,0.6908999999999996,15
11573,Dy4 Fe34 N6,0.0,194
11574,P4 H40 C8 N4 O16,4.7085,7
11575,Lu4 Ga10 Ni24,0.0,194
11576,Cd4 H20 N8 F12,3.9512,62
11577,H26 C4 Cl4 O16 F2,4.889200000000001,2
11578,In4 H12 C8 O20,4.2916,122
11579,Ca12 Si6 O26,0.3337999999999999,2
11580,Ga4 P8 H60 C20 N8 O32,4.5361,58
11581,Cu4 H20 N8 Cl12,0.4595,62
11582,K12 Ho4 Si12 O40,0.0781,62
11583,Te8 N4 O28,0.0,62
11584,Cd2 Re4 H16 C4 S4 N8 O16,2.7510999999999997,14
11585,Zr1 H24 C8 N2 F6,6.5525,148
11586,Zn6 H42 C18 N6 O36,4.4871,173
11587,V12 Bi24 O60,0.6472999999999995,62
11588,Rb3 Yb1 F6,0.0,225
11589,Rb3 Nd1 F6,4.7373,139
11590,Lu1 Cu1 Te2,0.48879999999999946,164
11591,Ce2 Ag1 Ge6,0.0,38
11592,La1 Cd2 Cu1,0.0,216
11593,Sr1 Pu1 O3,0.0,221
11594,Sr2 Er1 U1 O6,0.8574000000000002,225
11595,Zn2 As4 Pb4 O18,0.0,11
11596,Y4 Fe34 N6,0.0,194
11597,U2 Pb2 I12,0.03230000000000022,163
11598,Sr4 Ir3 O10,0.0,139
11599,Rb4 Nd8 Br20,0.33519999999999994,14
11600,Ni5 B2 Sb1 O10,0.0,10
11601,Nd10 Ge6 O26,0.0,176
11602,Nd4 Ta12 O38,0.0,193
11603,Na4 Mg12 Si12 H4 O40,3.5555,2
11604,K4 Cd2 H4 C16 N12 O16,3.6643,2
11605,Mn4 H48 C16 N72 O16,3.4249,61
11606,Mn32 Sn20,0.0,62
11607,Cu4 H10 C6 N6 O10,2.8819,15
11608,Cr4 As4 Ru4,0.0,62
11609,Co2 Bi12 P4 O28 F4,1.8654000000000002,15
11610,Ca4 Al6 O16,0.7889999999999999,217
11611,Ba3 Bi2 I2 O5,1.4181999999999997,139
11612,Zr1 Ti1,0.0,123
11613,Zr1 B4 Mo1,0.0,191
11614,Zr1 Nb1 N2,0.0,166
11615,Zr1 In1 Pd2,0.0,123
11616,Zr8 Nb2 Al6,0.0,12
11617,Zn1 Cu2 Ni1,0.0,160
11618,Zr2 B1 Ir6,0.0,123
11619,Zr32 As20,0.0,26
11620,Y1 Co4 Ge1,0.0,65
11621,U1 Bi4 W1 O12,0.7825999999999995,123
11622,U1 Cu2 Si2 Ni8,0.0,69
11623,Th2 Zr1 U1 O8,0.0,99
11624,Tb2 Cr1 Ge4,0.0,38
11625,Ta1 Nb1 Cu3 O8,0.0,1
11626,Sr1 Nd3 Al1 Cu1 O8,0.1902000000000008,38
11627,Sr2 La2 Mn2 O8 F2,0.0,129
11628,Sr4 Be3 Ge5,0.0,187
11629,Sr8 Fe2 Ru2 O13,0.036799999999999944,12
11630,Sn1 Sb1 O4,0.0,65
11631,Sm1 Er1 Co4 Ni6,0.0,47
11632,Sm2 Ga2 Fe12 Co3 C1,0.0,12
11633,Sb2 As2 Ru2,0.25929999999999964,10
11634,Sb1 Pd6 Se1,0.0,166
11635,Rb2 Na4 Al6 Si6 O26,0.18889999999999996,7
11636,Pr1 Sm1 Co4 Ni6,0.0,47
11637,Ni1 Mo4 N5,0.0,8
11638,Nb1 In1 Pb2 O6,2.4025,225
11639,Nb4 C3,0.0,160
11640,Na1 Zr2 S1 N2 Cl1,1.3357999999999999,160
11641,Nb2 Cr1 Mo2,0.0,42
11642,Nb3 Fe8 Si1,0.0,156
11643,Na1 Pr1 S2,0.3746999999999998,123
11644,Na8 Eu4 P8 Pb2,0.0,9
11645,Mn2 Zn2 Te8,0.0,14
11646,Mn1 Hg1 S2,0.0,160
11647,Mn1 Fe5 O8,0.09920000000000018,166
11648,Na1 Ti8 Bi9 O30,1.8094000000000001,65
11649,Mn8 O17,0.30900000000000016,2
11650,Li1 Er1 Se2,0.1492,123
11651,Lu1 Al6 Cr6,0.0,71
11652,Na1 Fe1 Cu1 S2,0.0,156
11653,Li3 Co2 Ni1 O6,0.0,164
11654,La2 Si3 Ni1,0.0,187
11655,Li2 Co2 H24 C6 N12 O15,2.7733,1
11656,K1 Mg3 Al1 Si3 O12,0.0,1
11657,K2 Na1 Nb1 O2 F4,2.2655,139
11658,K1 Cr2 S4,0.0,187
11659,Ho2 Fe2 Ru2,0.0,74
11660,K4 P1 Se3 O16,0.07209999999999983,1
11661,Na12 Mn6 B18 P12 H6 O76,0.06699999999999995,4
11662,Ga1 Ni4 Ge3,0.0,146
11663,Gd1 Si2 Pt2,0.0,139
11664,Fe1 Mo2,0.0,69
11665,Fe4 Si4 W4,0.0,38
11666,Fe5 Ni1 O8,0.008600000000000385,166
11667,Er2 Cr1 Ge4,0.0,38
11668,Eu1 Nb1 N1 O2,0.0,123
11669,Gd2 Al1 Fe3,0.0,166
11670,Fe2 Co2 Bi4 As4 O24,0.0,2
11671,Eu2 Zn1 Bi2,0.0,187
11672,Eu2 As3 Pt1,0.0,38
11673,Dy2 Cr1 Ge4,0.0,38
11674,Dy2 Ge2 Pd2,0.0,12
11675,Er4 Al4 Ni4,0.0,38
11676,Cu3 S2,0.0,115
11677,Cr2 Cu1 Ag1 S4,0.5529000000000002,6
11678,Ce2 Co1 Si3,0.0,187
11679,Ca1 Sn1 Hg1,0.0,187
11680,Ce2 Cu3 Sb4,0.0,99
11681,Ca5 Si6 O18,0.0,1
11682,Cr23 Ga26 Fe3,0.0,1
11683,Ca2 Nd4 Cu8 O16,0.05580000000000007,68
11684,Bi4 P1 Pd15,0.0,166
11685,Ba1 Sr1 Co1 W1 O6,0.0,216
11686,Ba1 Sc1 O2 F1,3.1634,123
11687,Ba1 Bi5,0.0,10
11688,Ba1 Eu1 S2,0.0,123
11689,Al1 Si1 Pt6,0.0,65
11690,Ba2 Nd2 Fe3 Co1 O12,0.0,115
11691,Ba8 Ta4 H52 C32 O92,3.1198,33
11692,La4 Au2 O8,0.0,65
11693,N1 Mo1,0.0,187
11694,O14 Na4 Si6,4.6833,15
11695,C12 Lu8,0.0,220
11696,O44 Tb24,0.011200000000000099,2
11697,Fe4 Yb2,0.0,227
11698,Si2 Ho1,0.0,191
11699,Fe6 O8,0.5828999999999995,63
11700,S1 Zr1,0.0,225
11701,S2 Ag1 In1,0.10819999999999919,166
11702,Pu1 Te1,0.0,221
11703,Lu8 Co2 B26,0.0,128
11704,Cr4 Ge4,0.0,198
11705,S8 Fe2 In4,0.040899999999999714,227
11706,Mn4 Ge4 Dy4,0.0,62
11707,Si4 Mn4 Yb4,0.0,62
11708,Mn2 Ge2 Ba1,0.0,139
11709,S1 Nb1,0.0,187
11710,N1 Mn3 Ir1,0.0,221
11711,O8 Ti2 Ag2 La2,1.4649999999999999,129
11712,H2 C2 O4 Na2,4.9002,15
11713,Li1 O8 Ni1 W2,0.0,1
11714,O16 Pr2 W4,0.0574,2
11715,O24 P6 Fe4,0.0,148
11716,Bi8 P12 O48,0.0,14
11717,Ag1 Ce1,0.0,221
11718,S54 Ni51,0.0,152
11719,F48 As8 Te28,0.9303999999999999,62
11720,Na5 Co2 S5,0.0,107
11721,O6 Ba2 Tb2,0.0,140
11722,Ga6 Ta10,0.0,193
11723,O16 S8 Sn4,2.7104,14
11724,Li2 Cr4 P6 O24,0.0,15
11725,O48 Si12 V8 Fe12,0.0,230
11726,Cl4 Cu1,0.0,42
11727,Cu2 Fe4 O8,0.0,74
11728,Al12 Li12 O24,4.504,115
11729,Ni1 O2,1.7854,166