Index,Composition,bandgap,spgN
13542,Tl3 Cd1,0.0,225
13543,Zn2 Pt2 C8 N8,3.9661,132
13544,Li4 H8 N4,2.9069,33
13545,Li4 Lu2 Si2 O10,0.08950000000000002,2
13546,Sm2 Fe17 B3,0.0,166
13547,K2 Li2 C8 N12,4.5441,140
13548,Sm2 Fe17 H3,0.0,166
13549,Hf16 Pd8,0.0,227
13550,Mg6 V1 H16,0.0,225
13551,K4 Fe2 P4 Se12,0.32030000000000003,14
13552,Na3 U2 O10 F7,0.2983,2
13553,Na4 W4 O15,0.398,2
13554,Hf12 Al4 Au8,0.05879999999999974,227
13555,Tm8 Rh5 C12,0.0,12
13556,Tb2 Fe17 N3,0.0,166
13557,Ba8 Cu1 Si16,0.0,1
13558,Sb8 I2 O12,0.0,12
13559,Mg7 V1 H16,0.0,225
13560,Cu3 I6 O20,0.025900000000000034,2
13561,Zr20 Re10,0.0,136
13562,Yb2 P2 H10 C2 O14,4.0859000000000005,2
13563,As4 Pb9 S15,1.4600999999999997,160
13564,Gd6 Mn23,0.0,225
13565,Mn6 H42 C18 N6 O36,3.6036,173
13566,H96 C16 S8 N16 O32,4.955299999999999,14
13567,V4 Cd4 Co4 O20,0.5346,62
13568,Mg64 Si32 Bi1,0.10050000000000026,221
13569,U4 H48 C24 N12 O32,2.2929,14
13570,Ni6 H36 C12 O36,3.7068,14
13571,P4 H72 C24 N4 F16,5.346299999999999,62
13572,Ta4 P8 H108 C36 Cl8,2.7923,15
13573,Fe6 H32 C8 Se8 N8,0.0,15
13574,Cd4 P56 Pb4,1.0360999999999998,62
13575,Si10 H30 C8 N2 O24,5.2089,4
13576,Mg6 H42 C18 N6 O36,4.8701,173
13577,Sn4 H12 N4 F12,4.1382,15
13578,Rb8 Zn14 As14,0.0,63
13579,Ti2 Si14 H96 C32 O4,3.0131,2
13580,Cu4 H80 C24 N8 Cl16,0.6553000000000001,14
13581,Rb8 Te8 O8 F28,0.5328999999999999,4
13582,Ca4 B12 O24,0.3762000000000001,14
13583,Dy18 C18 O72,0.07899999999999996,174
13584,Sb4 As4 H24 C8 F32,5.2115,73
13585,Ge4 Ru2 C8 Cl12 O8,3.0781,14
13586,Si8 Te4 H88 Pt2 C32 Cl4,2.1633,15
13587,Tl4 P12 H216 Pt4 C96 F24,2.5554,14
13588,K8 I8 Cl4 O24,0.11030000000000001,29
13589,Na8 S16 N8 O32 F16,5.3268,14
13590,P4 H34 C12 N2 O4,4.2067,2
13591,Cu8 H48 C16 Br12 N4,1.7327,62
13592,Ni4 H16 C8 S16 N8,1.2791000000000001,14
13593,Sr4 Fe2 P6 O24,0.2548,15
13594,K8 Ga8 H72 C24 F8,3.7599,219
13595,H26 C4 Cl6 O16,4.4958,2
13596,B4 P4 H36 N12,4.5419,14
13597,Bi8 As4 O24,0.0,14
13598,Na8 Ga6 Ge6 B2 H8 O24,3.5563000000000002,218
13599,H40 C12 N12 Cl4,4.8231,70
13600,Ba4 Mo4 I16 O60,1.1917,14
13601,Sr4 P12 H60 N16 O40,4.9322,14
13602,Co6 H12 C6 O18,2.766,148
13603,Na16 Nd8 N40 O128,0.6259,13
13604,Zn2 Bi12 P4 O28 F4,2.5296,15
13605,Tm6 Ru4,0.0,176
13606,Sr2 Co1 Sb1 O6,0.0,225
13607,K3 Yb1 F6,0.0,139
13608,Sr1 In5,0.0,191
13609,Y4 Fe34 H6,0.0,194
13610,Sr2 Al4 Fe3 P4 H4 O26,0.0,2
13611,Pr2 Ge6 Au1,0.0,38
13612,Na3 Sm1 V2 O8,3.4638999999999998,164
13613,La6 Be2 Al2 S14,2.1822999999999997,173
13614,Sb12 Pb18 S42,0.04830000000000023,176
13615,La2 Tl2 W4 O16,2.6612,12
13616,Ge4 P8,0.0,205
13617,Ce4 Si4 Rh4,0.0,198
13618,Co16 Mo12 O48,0.0,62
13619,B2 H4 S6 N6 F8,2.2817,2
13620,Zr1 Ti1 N2,0.0,123
13621,Zr1 Ti1,0.0,187
13622,Zr1 Nb1 C1 N1,0.0,160
13623,Zr4 Ti4 Au4,0.0,38
13624,Zr3 Mn9,0.0,156
13625,Zn3 Cu1,0.0,65
13626,Zn4 Fe1 S5,0.0,160
13627,Zr2 Nb1 Mo1 C4,0.0,160
13628,Y2 Fe2 Ni2,0.0,74
13629,V1 Pd3,0.0,166
13630,U2 Al6 Pd3 Pt1,0.0,25
13631,Tm1 Al1 Co4,0.0,187
13632,U2 Al3 Fe1,0.0,166
13633,Tb2 Ni2 Ge2,0.0,12
13634,Ta1 Nb1 C1 N1,0.0,160
13635,Ta4 W1 C5,0.0,166
13636,Sr1 La3 Ti2 Co2 O12,0.44510000000000005,25
13637,Sm4 Zr4 N4 O8,1.7814,62
13638,Sc2 V8 Si6,0.0,38
13639,Sc6 Ga8 Ni4,0.0,156
13640,Re1 W3,0.0,65
13641,Pr1 Co4 Si1,0.0,65
13642,Ni1 Pt1,0.0,166
13643,Nd1 Tl2 In1 Te4,1.2305000000000001,121
13644,Nb2 Mo2 Se6,0.0,11
13645,Nb6 Bi1 Se8,0.0,147
13646,Na1 W1 Cl2 O2,0.0,38
13647,Nb2 Fe1 S4,0.0,164
13648,Nb4 Cr6 Si6,0.0,38
13649,Na2 Pr1 O3,0.0,71
13650,Mn5 Sn1 O8,0.0,119
13651,Mo6 Os1 Ru1,0.0,200
13652,Mn1 In2 Se2 S2,0.0,160
13653,Mn4 Fe2 P3,0.0,6
13654,Mn2 In1 Cu4 Sn1,0.0,166
13655,Mn2 Cd1 Te3,0.0,164
13656,Na6 Mg4 Mn8 Be12 Si18 Sn6 O78,0.035199999999999676,5
13657,Mn6 Ni8 Sb2,0.0,51
13658,Li1 Y1 Se2,0.17099999999999982,123
13659,Li1 Dy1 Se2,0.1216999999999997,123
13660,Lu4 Al4 Ni4,0.0,38
13661,Lu2 B2 O6,4.5264,40
13662,Li4 Ti6 Ga6 O24,0.0,12
13663,Li2 Sn1 O4,2.2524,2
13664,Ho4 Cr1 Se7,0.0,8
13665,Hf3 Co1 S6,0.0,148
13666,K4 Mg2 H16 S4 O24,4.3828,5
13667,Mg1 Sc8 Ga15 Cu29,0.0,6
13668,Gd4 Ti2 Cu2 O12,0.0,14
13669,Fe4 Cu8 Sb4 O24,0.0,73
13670,Eu2 In3 Ni1,0.0,25
13671,Dy2 Mn9 Cr3 Ge12,0.0,3
13672,Cr5 Ni1 As3,0.0,38
13673,Cr5 Te6 Se2,0.0,156
13674,Cr6 C3 N1,0.0,38
13675,Cr2 Sb2 Te2 O12,0.7310999999999996,102
13676,Cr2 Co2 B2,0.0,69
13677,Cr1 Re1 O4,0.0,65
13678,Co3 Re1 B4,0.0,6
13679,Cr2 Fe2 Rh2 S8,0.0,74
13680,Co3 Cu1 Sn2 S8,0.0,44
13681,Cr8 Fe3 Cu1 S16,0.0,115
13682,Ca1 U1 O4,0.8860000000000001,123
13683,Ce4 U1 C10,0.0,71
13684,Bi1 As1 Pd6,0.0,166
13685,Ce4 Al1 Co25,0.0,65
13686,Ba1 Sm1 Co1 Cu1 O6,0.0,99
13687,Al4 Si1,0.0,166
13688,Ce1 In3 Cu4 Se8,0.0,81
13689,Li9 Mn2 Co5 O16,0.11969999999999992,3
13690,Li24 Al6 Si8,0.0,220
13691,N2 Cr1 W1,0.0,160
13692,Li4 B4,0.0,62
13693,Cr9 Ga12,0.0,12
13694,O3 Cr1 La1,1.9038999999999993,221
13695,B1 Sc3 In1,0.12190000000000012,221
13696,N6 O12 K2 Cu1 Pb1,0.0,202
13697,S4 Fe1 Ag2 Sn1,0.0,121
13698,Ba4 Tb4 O12,0.0,62
13699,Co2 Ni1 Ga1,0.0,123
13700,Fe2 Te2,0.0,129
13701,U2 Te4,0.0,129
13702,Ce2 Sn4 Ir4,0.0,129
13703,H24 N8 O16 S4,5.4258,19
13704,N6 O12 K2 Co1 Pb1,0.0,202
13705,O8 F2 P2 Fe2,0.0,2
13706,Nb6 Ga2,0.0,223
13707,H8 O8,4.511,92
13708,S8 V4 Cu3,0.002400000000000624,8
13709,Be48 P32,0.14510000000000023,142
13710,O6 K8 Sb4,1.2427,186
13711,Ba2 Si46,0.0,223
13712,Mo1 U2,0.0,139
13713,S38 Mo30,0.0,176
13714,C8 O24 K8,4.1733,14
13715,O32 P8 Fe6,0.0,14
13716,Li2 O24 P6 Mn4,0.351,15
13717,Se24 Tm16,1.6557999999999997,122
13718,Cr2 H1 O4,0.0,10
13719,F2 O4 Ta2,2.0476,131
13720,Co4 Cu2 O8,0.0,227
13721,H1 Li2 N1,2.4721,160
13722,Zr1,0.0,229
13723,Ca2 Cu6 Ga4 O24 Sb4,0.6444000000000001,201
13724,S4 Co1 Ga2,0.32379999999999987,82
13725,C4 V2 Cr4,0.0,63
13726,Li4 S4 O16 N8 H20,5.4792,33
13727,O6 Co2 Cu4,0.014499999999999957,59
13728,Ag4 Eu4 Ti4 O16,0.0242,57
13729,K6 Li1 Fe24 S26 Cl1,0.0,221
13730,O16 P4 Cr4,2.0334000000000003,2
13731,Li3 V6 O13,0.6565999999999996,1
13732,V2 S2,0.0,194
13733,Ba1 Co2 As2 O8,0.5766,2
13734,Te4 As4 I12 F24,1.8895,14
13735,Si4 O8,5.3498,1
13736,Si4 O8,5.4591,5
13737,Tl4 C2 S6,1.7532,15
13738,P4 H32 C8 N4 O16,5.544499999999999,14
13739,Ca2 Pt4 O8,0.0,131
13740,Bi4 Pd2 O8,0.0,108
13741,Ag4 B4 Te16 C4 O20 F80,2.5132000000000003,14
13742,As8 Se16 S8 N16 F48,1.5689,14
13743,V12 Bi24 O60,0.7919,62
13744,K4 Na2 Co2 C12 N12,4.3382000000000005,14
13745,Ga4 Se8 N4 Cl24,1.6414,14
13746,H64 W2 C16 N8 Cl14,1.6809,18
13747,Al2 Ge4 P2 H48 C16,3.8439,2
13748,Ta4 Si8 P4 H72 C24 N8 Cl24,3.1119,14
13749,La1 Si2 Ru3,0.0,191
13750,Rb26,0.0,20
13751,Pr6 Mn2 Bi10,0.0,193
13752,Tm3 Mn3 Ga2 Si1,0.0,189
13753,H24 W6 C8 N2 Cl18,0.09089999999999998,164
13754,Ce2 Nd2 I8,0.0,2
13755,Mg1 Cl2,4.906000000000001,115
13756,Cs4 Na2 Au6 C12 N12,2.5728,194
13757,Yb2 Cs2 Zn2 Se6,0.0,63
13758,Li2 Co10 P16 O56,0.006099999999999994,2
13759,Ni4 H16 C8 S16 N8,1.3418,14
13760,Fe2 H24 C8 N2 Cl8,1.4414,6
13761,Fe8 Cu4 S12,0.0,6
13762,Hg1,1.7473999999999998,12
13763,O8 P2 Ba1 Co2,2.0681000000000003,2
13764,P12 S4 N16 Cl20 O4,2.6121000000000003,62
13765,Yb4 H4 O8,0.0,81
13766,H16 Pt2 O12,1.5297,1
13767,Zn1 H2 O2,2.4257,164
13768,Mo2 H8 O10,2.5602,7
13769,Fe16 H16 O32,1.2659000000000002,1
13770,Al8 H24 O24,3.8335999999999997,4
13771,Tl8 H8 O8,1.5129,1
13772,Cd2 In2 Ga2 S8,0.25780000000000003,164
13773,Mn10 Ge4,0.0,1
13774,Ce4 B4 Mo4 O24,0.010600000000000165,14
13775,Sb4 Pb4 O14,0.0,1
13776,V4 Sb8 N4 Cl56,1.1919,14
13777,Te12 As8 S12 F48,2.0706,14
13778,In4 Ni2 S8,0.0,74
13779,Na4 U2 I12,0.0,224
13780,Sr16 Nb8 O36,3.0104000000000006,15
13781,Nb6 Pb10 O25,0.3586999999999998,1
13782,Y1 Al6 Si30 N45 O3,3.0805,1
13783,Th10 N9 F13,2.0872,115
13784,Sn12 P14 O48,0.0,11
13785,Sc14 Cu14 O37,0.0,8
13786,Ni2 Mo6 S8,0.0,2
13787,Ce4 Y6 O17,0.9173,160
13788,Na2 H6 C2 N8 O2,4.8789,51
13789,Mn6 P6 O24,0.0,146
13790,Li4 Ti8 Nb4 Cu8 O36,0.034399999999999764,1
13791,La2 H12 S6 N6 O18,4.2155,1
13792,P6 H22 N8 O18,5.1567,2
13793,Cs4 Ag4 B40 H40,3.9226,57
13794,Cr2 P10 O30,0.3783,7
13795,Li12 Ni8 P12 O48,0.0,5
13796,Be4 H24 N8 F16,7.2018,14
13797,Re4 H88 C16 S16 N32 Cl32 O12,1.3417000000000001,62
13798,Fe1 Ge4 H24 C8 S10 N2,0.2570999999999999,82
13799,Ni4 H72 C16 S24 N32 O16,2.5269,19
13800,Mo8 H16 N4 O26,3.1654,2
13801,Fe16 P16 H32 N8 O64,2.501,15
13802,Ba8 Br12 O2,3.6339,137
13803,Tl3 Sb8 O24,0.0,1
13804,Na5 Cu7 O13,0.0,1
13805,Li8 Ag4 F12,1.9647999999999999,62
13806,Li2 Cu1 S2,0.0,1
13807,Li4 Cu2 Si2 O8,0.0,20
13808,Li8 Cu2 F14,0.1221000000000001,15
13809,Li6 Ti2 S6,0.0,1
13810,Li4 Ti4 Si4 O16,0.0,62
13811,Li2 Ti2 P4 O14,0.10190000000000055,2
13812,La1 Tm1 O2,0.0,166
13813,Tb4 Ca2 O8,3.1189999999999998,63
13814,Mg2 C4 O8,3.4503999999999997,14
13815,Er2 Al2 O6,3.5517000000000003,194
13816,Dy4 Zr4 O14,2.6097000000000006,227
13817,Li4 Ti2 B4 O12,2.7927999999999997,1
13818,Lu4 Tl4 O12,0.6919000000000004,62
13819,Na2 Cu2 O4,0.7769999999999999,36
13820,Zr4 O8,3.4022000000000006,62
13821,La2 Mg1 O4,2.4898,139
13822,Sb4 Se4 O20,0.0,19
13823,Y4 Hg2 O8,1.2172,227
13824,Ho2 H2 O4,4.1921,194
13825,Nb4 Sb2 O12,0.0,15
13826,Li8 O4,5.2421999999999995,62
13827,Ca8 I12 O2,3.2907999999999995,186
13828,Ca4 Pb4 I16,2.6676,14
13829,Al4 Hg2 O8,1.3460999999999999,227
13830,Fe2 O2,0.6877000000000004,12
13831,Er4 Ti2 O10,3.0241999999999996,1
13832,Er4 Zr4 O14,2.3925000000000005,227
13833,Li4 Cu2 Si8 O20,0.7930999999999999,2
13834,Li2 Cu4 F10,0.0702,2
13835,Li8 Si8 Bi8 O32,3.0934999999999997,29
13836,Li4 Cu4 Si10 O26,0.4739,2
13837,Li4 Sn4 P16 O48,0.0,14
13838,Li4 Sn4 P16 O48,0.0,14
13839,Li4 Nb4 P4 O20,0.0,2
13840,Li12 Hf4 O12,0.0,136
13841,Li9 Cu9 C9 O27,1.5920000000000005,1
13842,Li10 Sn2 P8 O28,0.3907999999999996,2
13843,Li4 Sn4 P16 O48,0.0,14
13844,Li6 Cu6 P6 O24,0.0,9
13845,Bi11 P1 O20,0.0,1
13846,Li12 Sn8 P12 O48,2.9297,1
13847,Ag1 Hg1,0.0,123
13848,Te2 H28 C4 N8 O16,2.7712,15
13849,Li6 Cu2 F8,0.8418999999999999,63
13850,Li12 Bi4 P8 O32,3.7454,1
13851,Li6 Cu6 P6 O24,0.3797999999999999,159
13852,Li8 Cu8 P16 O48,1.4952,14
13853,Li4 Ti15 O32,1.9439000000000002,166
13854,Li12 Cu12 P12 O48,0.0,14
13855,Li8 Cu8 P16 O48,1.2797999999999998,14
13856,Y2 B2 O6,4.5918,40
13857,Li8 Te1 O6,2.6254,2
13858,Li8 Ag4 F12,1.9409,62
13859,Zr6 O11,0.3600000000000003,25
13860,Li4 Cu4 P4 O16,0.0,33
13861,Co6 O5 F7,0.0,5
13862,Cd4 Co4 O12,0.0,62
13863,Li6 Fe2 P4 O16,2.4045,11
13864,Li32 Fe8 P16 O72,0.1763,61
13865,Li4 Ni2 P8 O24,3.5437000000000003,1
13866,Li24 Fe8 P16 O64,1.9917999999999996,29
13867,Li4 Si12 Ni6 O32,3.4109999999999996,2
13868,Li4 Cr2 Co4 O12,0.0,64
13869,Li4 Co4 P4 O16,2.7229,14
13870,Li4 Co4 P4 O16,2.6359000000000004,4
13871,La9 Ni5 O19,0.0,42
13872,Li8 Co8 P8 O32,2.5252,14
13873,Li4 Co4 P4 O16,2.4381999999999997,60
13874,Co1 Sn3 P4 O16,0.7442000000000002,6
13875,Li8 Ni8 P8 O32,0.0,14
13876,V1 C2 O6,1.2893000000000001,148
13877,Li8 Mn12 O24,0.3493999999999997,1
13878,Li8 Cr8 Si8 O36,0.5087999999999999,7
13879,Li12 Fe4 P8 O32,2.24,1
13880,K4 Li2 Mn4 O8,0.0,15
13881,Li8 Fe4 P16 O48,3.7503,14
13882,Li3 V1 Fe3 O8,1.384,2
13883,Li4 Ni5 Sn1 P6 O24,3.0677000000000003,1
13884,Fe8 O10 F6,0.24609999999999999,7
13885,Na40 Cr8 H8 O32,0.06890000000000018,62
13886,Li2 Co2 Si2 O8,0.8709000000000002,63
13887,Li10 V10 O24,0.3938999999999999,1
13888,Li8 Cr16 P16 O60,2.0709000000000004,15
13889,Li2 Cr2 P8 O24,2.5311000000000003,4
13890,Fe6 O6 F6,0.9122999999999999,6
13891,Fe6 O9 F3,0.0,38
13892,Li2 Mn1 F4,3.7439999999999998,166
13893,Fe8 O12 F4,0.0,63
13894,Fe8 O10 F6,0.0,11
13895,Li4 V2 Co3 Cu3 O16,0.0,1
13896,Li2 V2 O6,1.9674999999999998,1
13897,Li2 Co2 Si2 O8,1.4737999999999998,1
13898,Li8 Co4 C4 O16,2.5618999999999996,14
13899,Ti3 Mn3 Sb2 O16,0.6120999999999999,1
13900,Li4 V4 P4 O20,1.5742,14
13901,Li4 P4 W4 O20,0.0,62
13902,Li2 V2 P4 O14,2.129,2
13903,Li1 Mn5 O3 F5,0.5714000000000001,8
13904,V8 P4 H40 N4 O44,2.0892,19
13905,Li4 V7 P6 O24,1.9388999999999994,8
13906,Li4 Mn3 Cr1 Co2 P6 O24,0.31820000000000004,1
13907,Li12 Mn4 C16 O48,0.009300000000000086,7
13908,Li2 V4 C8 O24,1.2619,2
13909,V4 C8 O24,1.5352000000000001,33
13910,Li1 V2 C4 O12,1.7715999999999998,1
13911,Li3 Nb1 Fe3 O8,0.8292999999999999,2
13912,Li4 Fe4 P16 O48,1.4224,60
13913,Li4 Ti4 Fe2 O12,1.9744000000000006,64
13914,Co8 O4 F12,0.0,38
13915,Li6 Mn6 Fe2 O16,0.4658000000000002,1
13916,O14 Si4 Sc4,3.764400000000001,227
13917,Li10 V6 Cr2 O16,0.7180999999999997,9
13918,Li6 Mn6 Cr2 O16,0.4144000000000001,1
13919,Co6 O4 F8,0.0,12
13920,Li8 Co1 O4 F2,2.4745,2
13921,Co8 O4 F12,0.0,1
13922,Li8 V4 O12 F4,2.5305,1
13923,Li4 Co4 O4 F4,0.0,129
13924,Li3 Co3 F9,2.7313,1
13925,V1 Fe2 Ni3 P6 O24,0.0,146
13926,Li4 Fe4 O2 F8,2.4931,36
13927,Mn2 Cr1 Ni3 P6 O24,0.0,146
13928,Li1 Mn7 O7 F1,0.0,156
13929,Co6 O8 F4,0.0,1
13930,Li12 V4 O12 F4,1.4337999999999997,1
13931,Li10 Mn2 Fe3 Ni3 O16,0.43179999999999996,1
13932,Fe12 O12 F12,0.0,6
13933,Li7 Ni1 O4 F2,1.553,1
13934,Li4 Co2 Si6 O16,3.1591,4
13935,Li4 V2 O4 F4,1.6495999999999997,11
13936,Li4 V4 O2 F12,1.9026,2
13937,Li2 Co2 C4 O12,0.7184,9
13938,Li4 Mn4 O4 F8,1.0331,34
13939,Li4 Sb4 P16 O48,3.4616,20
13940,Cr8 O8 F32,2.3486,15
13941,Cr3 Ni1 Te2 P6 O24,0.0,146
13942,Li2 Sn20 P14 O56,2.8388000000000004,161
13943,Li2 V12 F26,1.9781,2
13944,Li2 Mn2 O2 F4,0.6787,1
13945,Li3 V2 O3 F3,1.2123000000000002,1
13946,Li10 Ni2 O6 F2,3.0179,12
13947,Li2 Ni2 P2 O8,2.9667,5
13948,Li3 V4 O5 F7,1.1932999999999998,1
13949,Li3 V1 F6,2.4358,12
13950,Ti1 Mn3 Te2 P6 O24,1.3313000000000001,146
13951,V4 F20,3.1935000000000002,14
13952,Li2 Mn2 P2 O8,3.2595,9
13953,Li6 Ni2 O2 F6,3.1376,1
13954,Li3 V6 O3 F15,1.8419999999999999,144
13955,Li10 Fe2 O6 F2,2.6118,6
13956,Fe1 Co3 O8,0.0,166
13957,Li4 Sb1 Te2 W1 O12,0.0,1
13958,Li2 Mn2 P2 O8,3.6113999999999997,148
13959,Zn4 P4 H20 C8 N16 O12,4.6202,14
13960,Li4 Ni4 P4 O16,3.2155,33
13961,Li3 V3 O5 F3,1.4294999999999998,1
13962,Li24 Ni24 P24 O96,3.4437000000000006,169
13963,Li1 Ni7 O7 F1,2.2198,6
13964,Li8 Fe8 P8 O32,3.569,14
13965,Li6 Fe6 P6 O24,3.4326999999999996,9
13966,Li3 Mn2 Co2 O8,0.0,1
13967,Co9 Cu3 O16,0.0,160
13968,Cr6 O4 F4,1.5592000000000001,14
13969,Li2 Mn4 O6 F2,0.0,8
13970,Li4 Fe2 Si12 O30,0.33240000000000003,4
13971,Li4 Mn2 O4 F2,0.8410000000000002,1
13972,Li2 Mn4 P4 O16,0.0,7
13973,Li2 V2 Si2 O8,2.5026,143
13974,Li8 Mn4 O8 F4,0.9769999999999999,15
13975,Li2 Co4 P4 O16,0.9204999999999999,7
13976,Mn8 O2 F12,1.7613,186
13977,Li4 Fe2 Co3 Te3 O16,1.1970999999999998,1
13978,Li8 Cr3 Sb1 O12,0.6212,1
13979,Li4 Mn2 Si4 O12,3.1693000000000002,5
13980,Li8 Mn4 F20,1.8449,4
13981,Nb4 V1 O12,1.8575999999999997,1
13982,Li4 Mn2 Si6 O16,3.2608,4
13983,Li4 Ti3 Ni2 Sn3 O16,2.1122000000000005,8
13984,Li8 Mn4 B8 O24,1.4258000000000002,14
13985,Li12 V4 P4 C4 O28,2.5852000000000004,1
13986,Li4 Fe1 Ni5 P6 O24,0.0,1
13987,Mn3 Cr1 Te2 P6 O24,0.0,146
13988,Li2 Fe3 Ni1 O8,0.0,2
13989,Li2 Mn1 Fe3 O8,0.0,12
13990,Tm2 Ta2 O8,3.5355,36
13991,Ba8 Y8 Br40,3.819,14
13992,La4 H12 O12,4.1594,14
13993,Li4 Bi4 B8 O20,3.393,15
13994,Sr8 Br12 O2,3.4836,137
13995,Na4 Bi4 C8 S2 O32,0.0,70
13996,Li12 Bi10 O28,0.0,36
13997,Na8 Bi4 As2 C8 O32,0.0,70
13998,Rb2 Li4 B6 Sb4 O18,2.6207999999999996,13
13999,Li10 Fe12 B12 O36,1.6005000000000003,9
14000,Na6 Fe4 P2 C8 O32,0.04710000000000003,43
14001,Li8 V4 S4 O16 F12,2.237,14
14002,Li4 Ti2 Fe2 O8,0.0,1
14003,Li5 Fe2 Co3 O10,0.8073999999999999,2
14004,Li6 Mn2 P2 C2 O14,3.5753,1
14005,Li4 Al2 Ni2 O8,1.3815,31
14006,Li12 Cr2 O12,0.5179,1
14007,Ca6 W4 O18,3.4497,11
14008,Li4 Fe5 Sn1 O12,0.0,12
14009,Mn2 P4 O14,0.3533,2
14010,V4 Si4 O14,2.3302000000000005,227
14011,Mn2 C2 S2 O14,0.05690000000000006,11
14012,La4 Ti6 O18,3.781,176
14013,Li8 Cr8 B16 O40,2.1903000000000006,14
14014,Li2 Ti3 Fe1 O8,0.0,160
14015,Fe2 Ni2 O6,0.0,148
14016,Li3 Al3 V3 O12,1.741,180
14017,Rb8 Pr4 O12,0.0,15
14018,Li12 V4 B8 O24,2.6991000000000005,14
14019,Li2 Cr1 O2,1.4700000000000002,12
14020,Li8 Al4 Ni4 O16,1.6721000000000001,14
14021,Li8 V4 Si2 P4 O24,1.8049,5
14022,La8 Ti12 O36,2.6214999999999997,62
14023,Li16 V8 Si4 P8 O48,1.8829000000000002,1
14024,Li4 Ti2 Cr3 Ni3 O16,0.3219999999999996,1
14025,La4 Fe1 O8,1.0986000000000002,65
14026,Li8 Mn4 S4 O16 F12,1.677,14
14027,Li4 Si2 Sn2 C2 O14,3.2725999999999997,11
14028,Rb2 Li4 Mn4 B6 O18,0.5117,13
14029,Na8 Cr4 As2 C8 O32,0.0,70
14030,Li12 Cu20 O16,1.3603,14
14031,Nb2 P4 H3 O16,0.0,1
14032,Li4 V6 O16,1.9909999999999999,100
14033,Li8 Ti6 V4 Fe8 O36,1.5189999999999997,6
14034,Y8 Zr8 O28,4.0648,4
14035,Rb8 Mg4 H16,3.3651,62
14036,Li6 Co2 Si2 B2 O14,0.02519999999999989,11
14037,Li5 V2 Co5 O12,0.47619999999999996,5
14038,Li4 Ti1 Cr5 O12,0.06059999999999999,12
14039,Ti3 Ni3 Te2 O16,0.28169999999999984,8
14040,Mn16 O24,0.0,33
14041,Co3 Bi1 O8,0.0,166
14042,Li4 Ti3 Co5 O16,0.3207,1
14043,Sr8 La4 Cl28,4.2448999999999995,4
14044,Li3 Mn3 W1 O8,0.0,2
14045,Ba12 La4 Cl36,4.3826,62
14046,Li3 Mn2 V1 O6,0.6628000000000001,12
14047,Dy6 Er6 O18,3.0896,185
14048,Co2 P2 H2 O10,0.5148000000000001,2
14049,Li20 Ti8 O26,3.9595,2
14050,Li8 Cr8 O28,2.5126,14
14051,Li2 Ti4 Ni2 P4 O20,0.004699999999999704,14
14052,Na4 Co2 B2 As2 O14,0.33030000000000004,11
14053,Li4 Cr3 O8,0.24109999999999987,146
14054,Li16 Al8 Fe8 O32,3.1814,29
14055,Li2 Mn3 V1 O8,0.0,166
14056,Li6 Cr2 B2 As2 O14,2.8933,11
14057,Ba8 La8 Br40,2.8966,62
14058,Li2 Ti7 Nb6 O30,2.2457000000000003,143
14059,Na4 Si2 Bi2 B2 O14,0.07450000000000001,11
14060,Na4 V2 B2 As2 O14,1.5444,11
14061,Li6 Cr2 Si2 B2 O14,1.0319999999999998,11
14062,Li7 Co5 O12,0.0,5
14063,Li5 Cr2 Co5 O12,0.0,5
14064,Mn4 Ni1 O8,0.0,12
14065,Mn3 Fe1 O8,0.0,166
14066,Li2 Fe1 Ni1 O4,0.0,10
14067,V4 Cr4 O20,1.1569,62
14068,Mn3 Ni3 P6 O24,0.0,146
14069,Li4 Mn3 Nb3 Sb2 O16,0.0,1
14070,Li6 Ti15 Co3 O32,0.0,146
14071,Li3 Nb2 V1 O6,0.4786999999999999,12
14072,Li5 Nb2 V3 O10,0.2115999999999998,2
14073,Li5 Nb2 V5 O12,0.0,5
14074,Fe10 O11 F9,0.0,6
14075,Li8 Mn4 Co10 O24,0.4716,4
14076,Cr3 Ni1 P6 O24,0.0,146
14077,Na12 P4 H48 C4 O44,4.1941999999999995,14
14078,Na20 Bi8 As4 C16 O64,0.4649000000000001,1
14079,Li4 Cr4 Fe4 O16,0.7231999999999998,95
14080,Ti3 Mn3 Te2 O16,0.2400000000000002,1
14081,Cr2 Sb2 P4 O16,1.5183999999999997,11
14082,Fe1 Ni3 P4 O16,0.0,6
14083,Li4 Fe8 O4 F12,2.0694,78
14084,V1 Ni3 P4 O16,0.007099999999999884,6
14085,Li9 Fe2 O8,0.046499999999999986,5
14086,Li8 Ti8 V2 Cr8 O36,1.4674,55
14087,Li4 Mn3 V3 Ni2 O16,1.0070999999999999,8
14088,Li8 Cr4 Fe12 O32,0.0,1
14089,V12 Cu4 O32,0.8436999999999997,198
14090,Li2 Ni2 P2 O8,3.6873,148
14091,Li8 Ti2 Fe8 Co8 O36,0.0,6
14092,Nb1 Ni3 P4 O16,0.0,6
14093,Li6 V1 Sn3 P6 O24,1.5020000000000002,1
14094,Mg6 O6,3.4114000000000004,156
14095,Ti1 Mn2 O6,1.3592999999999997,12
14096,Na4 Li4 Cu4 P12 O36,1.2606000000000002,19
14097,Li4 Mn2 Cu2 O8,0.0,15
14098,Mn3 Fe1 Sn2 P6 O24,0.0,146
14099,Na10 Bi4 As2 C8 O32,0.4722999999999997,22
14100,Na8 Li4 Cu4 P8 O28,1.1706999999999996,14
14101,Y4 Nb8 N4 O20,2.6173,7
14102,Na20 Bi8 As4 C16 O64,0.3287,1
14103,Ti5 Cr1 P6 O24,0.0,146
14104,Fe2 O2,0.4281999999999999,131
14105,Li2 Fe2 F8,3.6098,88
14106,Ti3 Fe1 Sb2 P6 O24,0.0,146
14107,Mn4 Cr2 P6 O24,0.0,167
14108,Li10 Sb2 S8,1.1939000000000002,59
14109,Li1 V6 O7 F5,1.3779,1
14110,Li1 V6 O7 F5,1.0025999999999997,1
14111,Li3 Fe6 O3 F15,2.4943,144
14112,Li4 Fe8 O4 F20,2.0388,7
14113,Li3 Cr1 O4,0.9148000000000003,65
14114,Li6 Fe1 O4 F2,1.0125,2
14115,Li13 V24 O52,0.5977000000000001,1
14116,Li2 Fe2 F6,3.5106,63
14117,V5 O12,1.1948,1
14118,Li11 V6 O5 F19,0.5932000000000002,1
14119,Li4 Ti1 Co2 Ni3 P6 O24,2.3268,1
14120,Ti3 Cr1 Sb2 P6 O24,0.0,146
14121,Ta4 Cr2 N2 O10,1.4420000000000002,8
14122,Ba10 Y6 F38,6.4176,1
14123,Li12 Mn4 V4 P12 O48,0.15790000000000015,206
14124,Li2 Mn2 P4 H10 O18,3.812,2
14125,Fe6 O5 F7,1.3921999999999999,8
14126,Li2 V2 B2 O6,2.2229000000000005,2
14127,Li1 V6 O7 F5,1.0899999999999999,1
14128,Na12 Mn6 P8 O32,2.1610000000000005,1
14129,Fe10 O4 F16,1.3919000000000001,14
14130,Fe6 O7 F5,0.0674999999999999,1
14131,Mn3 Cr3 W2 O16,0.484,1
14132,Li4 Co4 Si4 O16,1.3233000000000001,33
14133,Li4 Nb3 Fe3 Te2 O16,0.5055999999999994,1
14134,Fe6 O4 F8,1.3245999999999998,12
14135,Li6 V8 O6 F18,0.9921,1
14136,Li16 Ni8 P16 O56,4.1252,4
14137,Sb8 Se12 O48,1.9958,14
14138,Be12 P12 O42,5.5953,15
14139,Hg4 Te8 O24,1.9151999999999998,14
14140,Li24 Mn12 F48,3.3902,14
14141,Li32 Co8 O32,1.1865999999999999,61
14142,Cr4 O12,1.2356,62
14143,Li2 Mn4 Si4 O14,0.7164000000000001,9
14144,Fe8 O10 F6,0.0,12