Index,Composition,bandgap,spgN
7336,Hf1 Mg30 Ni1 O32,0.014300000000000423,123
7337,Mg30 Cu1 Si1 O32,0.43040000000000056,123
7338,Mg30 Fe1 B1 O32,0.0,123
7339,Hf1 Mg30 Al1 O32,0.06970000000000098,123
7340,Ca1 Mg30 Bi1 O32,0.0,123
7341,Ba1 Ca1 Mg30 O32,3.0077999999999996,123
7342,Mg30 Al1 Sn1 O32,0.026699999999999946,123
7343,Ba1 Mg30 Cd1 O32,2.9877000000000002,123
7344,Mg30 Cr1 Bi1 O32,0.0,123
7345,Ce6 Mg2,0.0,139
7346,Mg15 Bi3,0.0,155
7347,Mg6 Bi6,0.0,8
7348,Ce15 Mg3,0.0,155
7349,Ce5 Mg1,0.0,189
7350,Ca4 Mg8,0.0,12
7351,Ca12 Mg6,0.0,155
7352,Ca4 Mg8,0.0,63
7353,Ca8 Mg4,0.0,63
7354,Ca6 Mg6,0.0,5
7355,Ce4 Mg8,0.0,63
7356,Na1 Mg30 B1 O31,2.484000000000001,25
7357,K1 Hf1 Mg30 O31,0.0,25
7358,K1 Mg30 B1 O32,4.0230999999999995,123
7359,K1 La1 Mg30 O32,3.0312,123
7360,Zn6 Co12 O24,0.0,1
7361,Mg4 Cu8 Te8 O32,0.13339999999999996,14
7362,Mg2 Sn6 P6 O26,0.0,11
7363,Ba4 Zn4 Sn4 F28,0.0,14
7364,Mg2 Ni4 O8,0.035499999999999865,74
7365,Mg2 Sb4 O8,2.5792,2
7366,Mg8 Cr8 Bi8 O40,0.8390000000000004,61
7367,Ca8 Co8 Bi16 O56,0.0,14
7368,Ca4 Mn6 O16,0.8689999999999998,186
7369,Ca3 Fe4 W6 O24,2.0509999999999997,2
7370,Zn1 Cu3 Ni4 O12,0.0,204
7371,Zn4 Ge8 W4 O24,1.8991999999999998,14
7372,Ti2 Zn2 Ag2 P6 O24,0.27190000000000003,161
7373,Ta2 Ti2 Zn2 P6 O24,0.45130000000000026,161
7374,Mg4 Cu4 Bi4 O20,0.27580000000000027,14
7375,Pr2 Mg2 Mn4 O12,0.0,31
7376,Ba6 Bi6 F33,0.2141,145
7377,Pr2 Zn2 Fe4 O12,0.0,31
7378,La2 Mg2 Ti2 Cr2 O12,2.277100000000001,7
7379,Al4 Fe12 O24,1.2643,12
7380,Ca5 Ti8 S16,0.0,12
7381,Mg2 Ti4 O8,0.0,74
7382,Ca2 Cr4 O8,2.3858,74
7383,Mg2 Cu9 O13,0.0,2
7384,Mg2 V4 O12,1.722,4
7385,Mn9 Zn2 O13,0.0,2
7386,Zn2 Fe9 O13,0.6078999999999999,2
7387,Sr4 Y2 Ti2 Cu4 O14,0.0,1
7388,Ca4 Ta4 Ni2 O16,3.4551000000000003,2
7389,Sr2 Sb2 P4 O16,1.6429999999999998,2
7390,Sb10 Te6 O36,0.17390000000000017,5
7391,Zn4 Bi4 As4 O20,1.9211999999999998,19
7392,Mg2 Ta1 W1 O6,2.6819000000000006,146
7393,Zn4 Mo4 As4 O20,0.9824000000000002,1
7394,Zn8 Sn16 O32,0.8740999999999994,8
7395,Mg2 Ag4 O8,0.6756999999999997,88
7396,Ca2 V4 O8,0.0,63
7397,Zn2 Ni4 O8,0.0,160
7398,N1 Mn3 Ag1,0.0,221
7399,K1 Fe2 Te2,0.0,139
7400,Hg2 S2 Br2,0.0,11
7401,Sr2 Ca6 Mn8 O24,0.0,123
7402,La5 Sm3 Co7 Cu1 O24,0.0,8
7403,La7 Sm1 Mn6 Fe2 O24,0.0,38
7404,K4 Na28 V28 Cr4 O80,0.5669,1
7405,Sr1 Ca7 Fe2 Co6 O24,0.0,38
7406,K4 Na4 Mo8 O24,0.0,123
7407,Eu2 Zn2 Ge2,0.0,74
7408,Ba2 Co2 S2 O2,1.1487000000000003,63
7409,Mn2 Fe1 W1 O6,0.0,146
7410,Mn6 Ga2,0.0,63
7411,Lu2 Cu4 Sn4,0.0,129
7412,Rb1 Na3 H4,2.5509,221
7413,K4 Ga4,0.0,62
7414,Cs1 V2 O5,0.19999999999999996,35
7415,Nb2 B4 Mo4,0.0,127
7416,Li4 Al4,0.0,194
7417,La2 Ti1 Ni1 O6,2.3843999999999994,225
7418,U2 Fe2 Se6,0.0,63
7419,Tb2 Sn6,0.0,38
7420,Ti12 N16,0.09830000000000005,62
7421,Te4 Mo1 W3 Se2 S2,0.0038000000000000256,156
7422,Ce3 Se6,0.42430000000000057,1
7423,Al1 Pt1,0.0,221
7424,Yb2 Ge6 Pt1,0.0,38
7425,La6 Mg6,0.0,5
7426,Mg4 Sn12,0.0,225
7427,Mg2 Ti10,0.0,38
7428,Y6 Mg6,0.0,38
7429,Y4 Mg8,0.0,63
7430,Mg4 Zn8,0.0,12
7431,Mg6 Sb2,0.0,194
7432,Mg10 Sb2,0.0,38
7433,Y3 Mg1,0.0,187
7434,Mg1 Zn1,0.0,187
7435,Ca2 Zn6,0.0,139
7436,Mg3 Sn1,0.0,187
7437,Mg2 Ga2,0.0,164
7438,Si4 Ni4,0.0,198
7439,Ag1 Br1 O2,0.7656000000000001,1
7440,Ba1 Cu1 S2,0.0,123
7441,Mg30 Ti1 Si1 O32,0.1181000000000001,123
7442,Mg30 Ti1 Si1 O32,0.1517999999999997,123
7443,Sr1 Ca7 Mn7 Fe1 O24,0.0,160
7444,La28 Sm4 Mn32 O80,0.036399999999999544,1
7445,Ca6 Sn4 S14,0.9571999999999998,36
7446,V1 Sn1 Rh1,0.4463999999999997,216
7447,Ca4 Sn14 S32,0.9951999999999996,32
7448,Li9 Mn2 Co5 O16,0.0,6
7449,Li9 Mn2 Co5 O16,0.0,6
7450,Li9 Mn2 Co5 O16,0.0,6
7451,Li9 Mn2 Co5 O16,0.0,6
7452,Li9 Mn2 Co5 O16,0.0,6
7453,Li9 Mn2 Co5 O16,0.0,6
7454,Li9 Mn2 Co5 O16,0.0,6
7455,Li9 Mn2 Co5 O16,0.0,6
7456,Li9 Mn2 Co5 O16,0.0,6
7457,Li9 Mn2 Co5 O16,0.0,6
7458,Li9 Mn2 Co5 O16,0.0,8
7459,Li9 Mn2 Co5 O16,0.0,8
7460,Li9 Mn2 Co5 O16,0.0,8
7461,Li9 Mn2 Co5 O16,0.0,8
7462,Li9 Mn2 Co5 O16,0.0,8
7463,Li9 Mn2 Co5 O16,0.0,8
7464,Li9 Mn2 Co5 O16,0.22840000000000016,8
7465,Li9 Mn2 Co5 O16,0.0,8
7466,Li9 Mn2 Co5 O16,0.0,8
7467,Li9 Mn2 Co5 O16,0.0,8
7468,Li9 Mn2 Co5 O16,0.0,8
7469,Li9 Mn2 Co5 O16,0.0,8
7470,Li9 Mn2 Co5 O16,0.31279999999999974,10
7471,Li9 Mn2 Co5 O16,0.0,10
7472,Li9 Mn2 Co5 O16,0.0,10
7473,Li9 Mn2 Co5 O16,0.0,10
7474,Li9 Mn2 Co5 O16,0.0,10
7475,Li9 Mn2 Co5 O16,0.0,10
7476,Li9 Mn2 Co5 O16,0.0,12
7477,Li9 Mn2 Co5 O16,0.0,12
7478,Li9 Mn2 Co5 O16,0.0,6
7479,Li9 Mn2 Co5 O16,0.0,8
7480,V2 Bi8 O17,2.0198,1
7481,Sn2 Ge2 O6,2.6087999999999996,148
7482,Li1 Mo1 P2 O8,1.349,1
7483,Cu9 S5,0.0,82
7484,Na1 V5 O8,0.0,1
7485,Sr1 Gd2 Sc2 O7,2.5645,139
7486,Cr4 O8,0.09859999999999935,205
7487,Yb4 Fe8,0.0,194
7488,Li2 Fe2 P2 O8,3.1112,2
7489,C6 N8,0.7726999999999999,187
7490,Rb4 Mo2 S4 O4,2.3944,15
7491,Nd4 Fe3 B6,0.0,166
7492,Mn2 Ga12,0.0,63
7493,K4 Hg2 S8,1.1952999999999998,15
7494,Nb10 Ga6,0.0,193
7495,Co4 Ag4 O8,0.3266,194
7496,Rb2 Li1 Mo1 I6,0.9751999999999996,225
7497,K2 Rb1 Bi1 Br6,3.4181,225
7498,K2 Rb1 Y1 I6,3.1274,225
7499,K2 Nd1 Ag1 F6,2.43,225
7500,K3 Pr1 Cl6,4.4737,225
7501,K3 Pr1 Br6,3.7651,225
7502,K3 Sb1 I6,2.3534,225
7503,K3 Bi1 I6,2.5793999999999997,225
7504,Cs2 K1 Ce1 F6,0.5746000000000002,225
7505,Rb2 Sc1 Hg1 F6,0.0,225
7506,K3 As1 I6,2.0463,225
7507,K2 Rb1 In1 Br6,2.5257,225
7508,K3 La1 Cl6,4.461,225
7509,Na2 Li1 Sc1 Cl6,3.7427,225
7510,K3 Au1 F6,0.7523,225
7511,Rb2 Au2 F6,0.0,221
7512,Rb2 Y1 Au1 I6,1.1678000000000002,225
7513,Rb2 Ga1 Au1 I6,0.0,225
7514,K2 In1 Ga1 I6,0.15599999999999992,225
7515,K2 Sc1 Hg1 I6,0.0,225
7516,K2 Sb1 Au1 Cl6,0.2250000000000001,225
7517,K2 Al1 In1 Br6,1.8238999999999999,225
7518,K2 In1 Ga1 F6,2.5553,225
7519,Cs3 Ga1 Br6,2.3433,225
7520,Cs2 Rb1 Tl1 I6,0.6116,225
7521,Cs2 Li1 Au1 F6,0.5297999999999999,225
7522,Cs2 Y1 Hg1 F6,0.0,225
7523,Cs2 K1 Ta1 Cl6,0.0,225
7524,Cs2 K1 Ta1 Br6,0.0,225
7525,Cs2 Al1 Au1 I6,0.0,225
7526,Cs2 Hg1 Ir1 F6,0.0,225
7527,Cs2 Na1 Au1 Cl6,0.0,225
7528,Na3 Sc1 F6,5.5812,225
7529,Rb2 Tm1 Au1 Cl6,1.9454999999999998,225
7530,Rb2 Er1 Au1 Cl6,1.9740000000000002,225
7531,Rb2 Na1 Tl1 I6,0.0,225
7532,Rb2 Y1 Hg1 I6,0.0,225
7533,Ta1 In3 Se4,2.174,217
7534,V1 In3 Se4,1.2788,217
7535,Mg2 Ag1 Sm1,0.0,225
7536,Ba4 Cu3 Re1 O12,0.0,229
7537,Cu1 F2,0.0,123
7538,La2 Cu1 S4,0.0,69
7539,Ba2 Cu1 Te1 O2,0.0,123
7540,Cr6 P8 O28,0.0,2
7541,Ta4 Sn1 O12,2.7992999999999997,1
7542,Nb15 Ir13 Se56,0.0,156
7543,Na20 Mn12 F56,0.715,19
7544,Li6 Mn2 Co2 O10,0.0,12
7545,Li8 Co6 O14,0.0,12
7546,Li6 Mn2 Co2 O10,0.14250000000000007,1
7547,Li8 Co6 O14,0.0,12
7548,Li7 Co5 O12,0.4988999999999999,12
7549,Li8 Mn2 Co4 O14,0.25909999999999966,2
7550,Li8 Mn2 Co4 O14,0.21850000000000014,1
7551,Li8 Mn2 Co4 O14,0.15739999999999998,1
7552,Li8 Mn2 Co4 O14,0.22280000000000033,1
7553,Li8 Mn2 Co4 O14,0.0,1
7554,Li8 Mn2 Co4 O14,0.2615000000000003,1
7555,Li8 Mn2 Co4 O14,0.1741999999999999,1
7556,Li8 Mn2 Co4 O14,0.1513,1
7557,Li8 Mn2 Co4 O14,0.2827000000000002,1
7558,Li8 Mn2 Co4 O14,0.23889999999999967,1
7559,Li8 Mn2 Co4 O14,0.29559999999999986,1
7560,Li8 Mn2 Co4 O14,0.2703000000000002,1
7561,Li5 Mn3 O8,0.0,2
7562,Li8 Mn2 Co4 O14,0.0,8
7563,Li8 Mn2 Co4 O14,0.0,8
7564,Li8 Mn2 Co4 O14,0.0,8
7565,Li8 Mn2 Co4 O14,0.0,8
7566,Li7 Mn2 Co3 O12,0.2847999999999997,1
7567,Li7 Mn2 Co3 O12,0.08950000000000014,1
7568,Li7 Mn2 Co3 O12,0.0,1
7569,Li7 Mn2 Co3 O12,0.037799999999999834,1
7570,Li7 Mn2 Co3 O12,0.04800000000000004,1
7571,Li7 Mn2 Co3 O12,0.2727999999999997,1
7572,Li7 Mn2 Co3 O12,0.3682000000000003,1
7573,Li7 Mn2 Co3 O12,0.3012999999999999,8
7574,Li7 Mn4 Co1 O12,0.07119999999999971,12
7575,Li7 Mn4 Co1 O12,0.0,10
7576,Li9 Co7 O16,0.0,10
7577,Li9 Mn2 Co5 O16,0.18159999999999998,2
7578,Li9 Mn2 Co5 O16,0.13249999999999984,5
7579,Li9 Mn2 Co5 O16,0.0,2
7580,Li9 Mn2 Co5 O16,0.20820000000000016,2
7581,Li9 Mn2 Co5 O16,0.21309999999999985,1
7582,Li9 Mn2 Co5 O16,0.0,2
7583,Li9 Mn2 Co5 O16,0.1889999999999996,1
7584,Li9 Mn2 Co5 O16,0.13759999999999994,1
7585,Li9 Mn2 Co5 O16,0.14620000000000033,1
7586,Li9 Mn2 Co5 O16,0.036900000000000155,1
7587,Li9 Mn2 Co5 O16,0.1764000000000001,1
7588,Li9 Mn2 Co5 O16,0.6558000000000002,1
7589,Li9 Mn2 Co5 O16,0.21040000000000036,1
7590,Li9 Mn2 Co5 O16,0.29689999999999994,1
7591,Li9 Mn2 Co5 O16,0.34079999999999977,1
7592,Li9 Mn2 Co5 O16,0.2270000000000003,1
7593,Li9 Mn2 Co5 O16,0.38519999999999976,1
7594,Li9 Mn2 Co5 O16,0.22319999999999984,1
7595,Li9 Mn2 Co5 O16,0.21700000000000008,1
7596,Li9 Mn2 Co5 O16,0.31279999999999974,1
7597,Li9 Mn2 Co5 O16,0.3376999999999999,1
7598,Li9 Mn2 Co5 O16,0.2427999999999999,1
7599,Li9 Mn2 Co5 O16,0.2915000000000001,1
7600,Li9 Mn2 Co5 O16,0.0,1
7601,Li9 Mn2 Co5 O16,0.3527,3
7602,Li9 Mn2 Co5 O16,0.23260000000000014,1
7603,Li9 Mn2 Co5 O16,0.0,12
7604,Li9 Mn2 Co5 O16,0.0,1
7605,Li9 Mn2 Co5 O16,0.07780000000000031,3
7606,Li9 Mn2 Co5 O16,0.0,1
7607,Li9 Mn2 Co5 O16,0.000800000000000356,3
7608,Li2 V2 S6,0.02939999999999987,2
7609,Li2 Mn2 Co2 O8,0.6197999999999999,74
7610,Li4 Cu8 P4 O16,0.5156000000000001,1
7611,Li4 Cr4 P8 O28,1.6906999999999999,1
7612,Li12 Sb2 S4,1.0132,15
7613,Li6 Co6 O5 F11,0.6181000000000001,1
7614,Li4 Ni3 Sb1 P4 O16,0.7210000000000001,6
7615,Li4 Nb1 Fe5 P6 O24,0.5099999999999998,1
7616,Li4 Mn3 Nb1 Fe2 P6 O24,0.5660999999999996,1
7617,Li6 Mn6 P16 O58,0.0,1
7618,Li8 V4 O8 F4,1.0888,1
7619,Li8 V4 O8 F4,1.0384000000000002,1
7620,Li4 V2 B2 O8,2.0185999999999997,20
7621,Li4 Ti2 Ni4 O10,0.6395999999999997,12
7622,Li8 Fe12 Co4 O32,0.0,1
7623,Ge8 N8 O4,1.8165999999999998,7
7624,Fe10 O16 F4,0.0,4
7625,Fe10 O16 F4,0.0,1
7626,Fe10 O16 F4,0.06400000000000006,14
7627,Fe10 O16 F4,0.0,1
7628,Fe8 O4 F12,0.21419999999999995,2
7629,P2 H48 W24 C12 N6 O80,3.316,166
7630,Np8 S4 O40,0.8603999999999999,13
7631,Mg4 Ni2 H8,0.0,12
7632,Mn4 Ni2 O8,0.7044000000000006,1
7633,Li4 Cd4 Mo4 O20,0.0,14
7634,Mn16 Si12 O50,0.00770000000000004,12
7635,K24 As24,0.0,57
7636,Mn2 Co2 O6,0.0,2
7637,Fe4 H4 O8,1.4240000000000002,1
7638,Ca4 Cu4 Si6 H8 O24,0.4402999999999997,11
7639,Fe16 H20 O34,1.6250000000000002,1
7640,Al2 Fe1 P2 H18 O18,1.9649,2
7641,Ac6 Si2,0.0,194
7642,Al3 Cu1,0.0,221
7643,Ac2 Th6,0.0,194
7644,Bi3 Pb1,0.0,225
7645,Ce3 Ho1,0.0,221
7646,Ce3 Er1,0.0,221
7647,Cs1 Mg16 Al12,0.0,217
7648,Ce3 Gd1,0.0,221
7649,Er2 Tc1 Ag1,0.0,225
7650,Ga3 Pb1,0.0,221
7651,Eu6 Y2,0.0,194
7652,K1 Sr3,0.0,221
7653,K1 In3,0.0,139
7654,Mg16 Al12 Os1,0.0,160
7655,Mg16 Al12 Tc1,0.0,160
7656,Mg16 Al12 W1,0.0,160
7657,Na3 Ga1,0.0,221
7658,Sr2 Zn1 Pt1,0.0,225
7659,Tb1 Ce3,0.0,139
7660,Tb2 Eu6,0.0,194
7661,Ti6 Nb2,0.0,194
7662,Yb1 Dy3,0.0,139
7663,Y1 Bi3,0.0,139
7664,Y2 Bi6,0.0,194
7665,Zn6 Sn2,0.0,2
7666,Ho4 Si12,0.0,139
7667,Ba4 Yb2 In2 Se10,0.0,36
7668,Ca1 V4 Co3 O12,0.0,204
7669,Ca4 B4 O12,0.5928,14
7670,V12 Si10,0.0,71
7671,La6 Fe2 Ni2 S14,0.0,173
7672,Cs4 S4 O16,3.4509,14
7673,Sr4 P4 O16,0.0,2
7674,K2 Mn2 H6 C6 O12,3.6635,15
7675,Cu14 Hg12,0.0,160
7676,Cu4 Sb8 O16,0.4720999999999993,106
7677,H20 C6 Br2 N2,4.3758,11
7678,Hf18 B2 Os8,0.0,194
7679,Mg4 H32 C16 N8 O24,4.7814,14
7680,Na4 B20 H32 O52,0.4918999999999998,15
7681,Mn2 H16 C8 N4 O12,3.2718000000000003,15
7682,Lu2 H18 C10 N4 O16,4.6135,20
7683,Cs2 Ca2 Se6 O24,0.0020000000000000018,11
7684,Na4 La4 P8 H16 C4 O28,4.7084,14
7685,Sb20 I4 O28,2.2955,7
7686,Cu4 H48 Pt4 C16 N32,0.9075,62
7687,K2 Cr6 Bi2 O24,0.6248,2
7688,La8 N24,0.49319999999999986,14
7689,Ag4 H40 Rh4 N24 O40,2.139,14
7690,Si4 B2 P2 H58 C18 N2,3.5121,36
7691,U4 Co30 Ge4,0.0,63
7692,Ba4 H28 Cl8 O30,2.6812,15
7693,Ba8 B20 O44,0.0,14
7694,In8 H24 C20 O44,4.7225,14
7695,H72 Pt8 C24 Br8,3.6209,12
7696,V3 P6 H14 N3 O24,0.21310000000000007,2
7697,H24 C8 Se8,2.4836,43
7698,Cu20 Si16 O56,0.0,61
7699,Tm4 Fe30 Si4,0.0,194
7700,Dy2 H18 C10 N4 O16,4.6117,20
7701,Si16 O32,5.6777,21
7702,Mg6 Si8 O24,0.04479999999999995,9
7703,V2 H20 Se2 N2 O18,2.7799,4
7704,Rb4 Si8 O20,1.1087,62
7705,Ca2 H16 C4 N8 O10,4.9929,2
7706,Sc4 H60 C12 S12 O48,4.0689,148
7707,Na2 U2 Co1 H8 C12 O28,0.18039999999999967,2
7708,Ni36 S32,0.0,122
7709,Er8 Co2 B26,0.0,128
7710,Rb8 P2 S6 O32,0.0,18
7711,Cs14 In6 As12,0.31499999999999995,2
7712,Mo8 H148 C48 N12 Cl32,0.6922,62
7713,Si16 Te8 H176 Pd8 C64 Cl16,1.7522,2
7714,Mn20 As8 O48,0.03550000000000031,19
7715,V4 Bi8 O24,0.0,14
7716,Cs4 Al4 V4 P8 O40,0.5948999999999999,14
7717,Ga2 Si6 P2 H60 C20 N4 Cl8,3.1066000000000003,4
7718,K3 Dy1 F6,4.9942,139
7719,Sr2 Dy1 U1 O6,0.8459999999999992,225
7720,Sm2 Ag1 Ge6,0.0,38
7721,Pr2 Ag1 Ge6,0.0,38
7722,K3 Er1 F6,5.0479,139
7723,Np1 Al3 Pd2,0.0,191
7724,Li1 La2 V1 O6,1.9291,225
7725,Ho1 Cu1 Te2,0.4985999999999997,164
7726,Er1 Cu1 Te2,0.42790000000000017,164
7727,K3 Ho1 F6,5.0276000000000005,139
7728,Sr2 Yb1 U1 O6,2.142,225
7729,Li1 Al1 Pd1,0.0,187
7730,Nd2 Ag1 Ge6,0.0,38
7731,Y16 Si8 N4 O32,0.0,14
7732,Sr2 Ho1 Cu2 Bi2 O8,0.0,139
7733,Rb4 Sm8 Br20,0.6320000000000001,14
7734,Pu4 As4 O16,0.0,14
7735,Sb8 Te12 Se12 F48,1.3727,19
7736,Pu4 Cr4 O12,0.0,62
7737,Nd5 Mn8 Pb3 O24,0.0,221
7738,Na3 Pr1 As2 O8,3.245,164
7739,Na6 Yb2 Cl12,0.010199999999999987,14
7740,Mg3 Si4 O12,0.09399999999999986,2
7741,Na22 Co26 O52,0.009500000000000064,147
7742,K2 Yb2 Mo4 O16,0.0,15
7743,K4 Pt4 N8 O20,0.6176,14
7744,K4 Sm8 Br20,0.4468000000000001,14
7745,K4 Si10 B2 O24,0.0,31
7746,K4 Ba2 V4 Cl2 O14,0.0,194
7747,Na8 Si48 O96,0.19879999999999987,229
7748,Gd2 Nb10 Ag4 O30,1.9516,127
7749,Eu4 Tl4 S8 O36,0.0,14
7750,Co2 H12 Br4,0.10640000000000005,11
7751,Co4 N2 O12,0.07510000000000001,4
7752,Ce2 Ag2 W4 O16,0.022700000000000387,12
7753,Ce2 Cu2 W4 O16,0.058699999999999974,2
7754,Cd12 Ga20 O48,0.0,230
7755,Ca4 U8 S20,0.0,62
7756,Ce4 Fe4 S10,0.0,36
7757,N6 O12 K2 Cu1 Ba1,0.22440000000000004,69
7758,Ba2 Nd1 Cu2 Hg1 O7,0.0,123
7759,Ba2 La1 Cu2 Hg1 O7,0.0,123
7760,Al1 Co2 Ni1,0.0,139
7761,Zr16 Zn4 Ag4,0.0,216
7762,Zn1 Cd1 Te1 Se1,0.0034000000000000696,156
7763,Zn1 Cu2 Au1,0.0,160
7764,Zn1 Cr4 Ni1 O8,0.0,216
7765,Zn2 H14 C6 N2 O12,4.5655,5
7766,Yb2 U1 Se3 O2,0.08590000000000009,107
7767,V1 Ru3,0.0,187
7768,Ti1 V1 C1 N1,0.0,160
7769,Tl1 Sn2 F5,1.9626000000000001,8
7770,U2 Mn1 Al3,0.0,166
7771,Ti1 Cr1 P2,0.0,164
7772,U1 Cu1 Si1,0.0,187
7773,Ti3 Zn1 Hg4,0.0,123
7774,Ti3 S4,0.0,156
7775,Ti1 Mo2 S4,0.0,8
7776,Th1 Hg1,0.0,166
7777,Ti4 Fe12 O24,0.5579000000000001,1
7778,Tb4 Al4 Ni4,0.0,38
7779,Ta12 Cr6 Cu6 C4,0.0,44
7780,Sr1 Eu1 Sc1 O4,0.0,107
7781,Sm1 Mn5 Co7,0.0,44
7782,Sm6 Ga6 Co12,0.0,164
7783,Ru12 W18,0.0,35
7784,Pr2 Fe2 Co2,0.0,74
7785,Pr2 Co5 Cu5,0.0,47
7786,Nb2 Rh4,0.0,6
7787,Nb4 Rh1,0.0,69
7788,Nb4 W1 C5,0.0,166
7789,Nb8 N5,0.0,65
7790,Na1 Bi1 Te2,1.1388999999999996,166
7791,Na3 Mn2 B1 O6,1.8178999999999998,2
7792,Na6 B2 P8 Pb2 O32,0.03600000000000003,1
7793,Na2 Mg1 Zn5 As6 O24,0.019299999999999984,5
7794,Mo1 Rh1,0.0,187
7795,Mn1 Co1 Sn1 Pd1,0.0,216
7796,Mn1 Co1 Cu1 Sn1,0.0,216
7797,Mn1 Au4,0.0,166
7798,Mn8 B2,0.0,22
7799,Mn3 Cd1 Te4,0.0,123
7800,Mn2 Cu1 Sb2 Pt1,0.0,160
7801,Mg1 Ag3,0.0,166
7802,Lu3 Mg1,0.0,65
7803,Na4 As8 H72 N26,0.03820000000000001,9
7804,Li3 Pr1 Ga8,0.0,47
7805,La2 Th8 O2 F38,1.1684,11
7806,La2 Ti3 V1 O10,0.0,119
7807,La4 Sm1 Mn5 O15,0.0,10
7808,La2 Er4 Se8,0.0,122
7809,La2 Fe4 Sb5,0.0,8
7810,In1 Hg1 Te2,0.0,160
7811,K2 Al2 Cl4 O2,4.2783999999999995,4
7812,K4 Sb2 O5,0.037900000000000045,38
7813,Ho1 Ag1 Se2,0.0,123
7814,Hg1 Mo6 Se4 S4,0.0,1
7815,In2 Ga1 S4,0.0,156
7816,Hf1 W1 C2,0.0,166
7817,Ho3 Tm1 Mn8,0.0,8
7818,K6 Na2 U2 C6 O24,0.07639999999999997,9
7819,H4 Pd3,0.0,99
7820,Fe3 Ni6 As6,0.0,44
7821,Dy1 Si2 Pt2,0.0,139
7822,Fe3 Co3 Ge2,0.0,160
7823,Er1 Si1 Ag1,0.0,187
7824,Dy1 Al6 Cr6,0.0,71
7825,Cu1 Ni3 O4,0.0,166
7826,Er3 Mn3 Ga2 Ge1,0.0,174
7827,Dy2 Fe15 Co2 C1 N1,0.0,2
7828,Co1 Pd1,0.0,166
7829,Cr4 B6 W6,0.0,108
7830,Er6 Si6 Pb3 O24,3.3964,143
7831,Cr1 Fe3 As2,0.0,115
7832,Co1 Ni2 S4,0.0,10
7833,Ce1 Er1,0.0,187
7834,Ce1 Al1 Co4,0.0,187
7835,Ce2 Fe1 Si3,0.0,187
7836,Ce1 Y3 Mn8,0.0,8
7837,Cd8 Fe2 S10,0.03399999999999981,1
7838,Ca4 Si3 B5 O20,0.13140000000000018,1
7839,Ca4 Al4 Si2 O16,0.0,121
7840,Al2 Si6 O16,0.029299999999999993,2
7841,Ba3 La3 Cu6 O14,0.0,47
7842,Ag1 Bi1 Se2,0.0,123
7843,Ag2 Pb1 I4,0.9009999999999998,139
7844,Cu3 Sb4 O6 F6,0.0,217
7845,Pr4 Mn24 Co10,0.0,63
7846,B6 Lu1,0.0,221
7847,N2 Mn3,0.0,139
7848,C2 Al2 Sc4,0.0,194
7849,Li2 C12 N12 Co2 Rb4,4.2833,14
7850,Rh5 Er1,0.0,191
7851,Nd2 Ni1 O4,0.6638000000000002,139
7852,Mg2 Ag1 Gd1,0.0012999999999996348,225
7853,Li4 Sb4 Ce2,0.0,129
7854,Li1 C6 N6 Fe1 Cs2,0.0,225
7855,Ge2 La1 Pt2,0.0,139
7856,Nd2 Cu1 O4,0.0,139
7857,Ge2 Pt2 Th1,0.004100000000000215,139
7858,Nb6 In2,0.0,223
7859,Mn1 Cu2 Sn1,0.0,225
7860,O12 Ba4 Pr4,0.0,62
7861,Te1 I1 Bi1,1.2741999999999996,156
7862,Te2 I2 Bi4,0.0051000000000005485,12
7863,H24 C16 O32 Rb8,4.8136,61
7864,H12 Li4 Be4,2.3768000000000002,62
7865,H1 O32 Mg16 Si8,0.0,25
7866,Li2 O8 Co4,0.0,227
7867,O8 Ni4,1.4989000000000001,227
7868,Li4 C2 O14 P2 W2,3.5678,11
7869,H6 O18 P6 Fe4,2.5402,176
7870,Br2 La2,0.0,166
7871,Li2 O4 Ru2,0.0,58
7872,Sb3 Au1,0.0,229
7873,Zr3 Ag1,0.0,221
7874,N3 O6 La1,2.2049000000000003,160
7875,Li2 O16 P4 V2,1.0805,4
7876,N13 Nb16,0.0,12
7877,Ni15 O16,0.0,12
7878,Nb1 Ir1 S4,0.0,12
7879,Ce4 Cd2 Se8,0.0,122
7880,Ag2 Hg1 I4,0.09169999999999989,160
7881,Cs4 Rb2 Fe2 C12 N12,3.6228,14
7882,Ba12 Ti12 O27,0.0,8
7883,Mg32 O96 Si32,4.5226,5
7884,Ni4 O16 P4,0.0,62
7885,Li2 Bi4 P6 O24,0.0,15
7886,O16 P4 Mn4,0.4366,7
7887,Fe8 O12,1.4108999999999998,60
7888,Re8 Sc12 Si12,0.004000000000000448,15
7889,Yb2 Cs2 Co2 Se6,0.0,63
7890,Te2 O5 Nd1 Cl1,0.24799999999999933,123
7891,O6 C2 Ba2,3.9622,194
7892,Cu4 Ge4 O12,0.0,14
7893,Si32 O64,5.68,16
7894,Y4 Se4 F4,1.5591999999999997,62
7895,Li4 B4 C16 O32,3.3042000000000002,62
7896,H56 C20 N8 O8,4.3708,14
7897,La1 Fe1 O3,0.8483999999999998,221
7898,H56 C20 S8 N8,2.6468,14
7899,Sc4 H12 C12 O24,3.4017999999999997,14
7900,Ca12 Mg4 Si8 O32,3.8228,14
7901,Ag3 S1 I1,0.6203000000000003,221
7902,V2 P4 O14,1.3319,122
7903,Li8 Mo6 O16,0.6280000000000001,166
7904,Ni2 P4 H48 C8 O28,4.8972,14
7905,Al4 Se4 Br12 N4,1.8812,14
7906,Nb6 Bi2,0.0,223
7907,K4 Sm8 Cl20,0.4721000000000002,14
7908,Cd2 Ru1 C6 N6,2.6444,147
7909,Ag2 I2,0.9588999999999999,11
7910,V1 Sn1 Rh2,0.0,225
7911,Er3 Mn3 Ga2 Si1,0.0,189
7912,Ca4 Cl8,5.3328,62
7913,I8 Cl8,1.1579,14
7914,Ba24 V16 S44 O20,1.9141000000000001,62
7915,S2 Ni2,0.0,194
7916,Eu4 Sc8 Se16,0.0,62
7917,Eu4 Ge8 Pt8,0.0,14
7918,Zr1 Fe1 F6,0.0,148
7919,Ba6 Ce4 C10 O30 F4,0.0,8
7920,Yb2 H6 O6,0.0,11
7921,Yb2 H6 O6,0.0,11
7922,V12 H8 O32,1.4669999999999999,14
7923,Na4 C8 N12,4.5207999999999995,14
7924,Fe1 Ni1 N1,0.0,123
7925,Mg4 Fe8 O16,0.9805999999999999,57
7926,Yb2 H2 O4,0.0,11
7927,C8 N8 K4 Zn2,6.050800000000001,227
7928,Ca1 Ge2,0.0,12
7929,Hg2 H4 N2 Cl2,2.3849,51
7930,V6 Pb3 O18,2.3433,21
7931,Te16 As16 Se32 F96,1.6914,33
7932,Sb16 Te16 O72,1.1992000000000003,14
7933,Tc8 C32 I8 O32,2.3319,14
7934,Pb8 O4 F8,2.2157999999999998,1
7935,Pb4 C4 S4 N4 Cl4,3.1401,62
7936,H8 O4,5.0638000000000005,36
7937,Sb8 Cl27 F13,1.0425,1
7938,Zr10 Sc4 O26,3.647,146
7939,Li2 Ni18 S20,0.0,1
7940,Ca4 Th1 F12,5.5383,1
7941,Li22 Mn2 As12,0.0,43
7942,Mo3 H24 C8 S13 N2,1.2768,157
7943,U8 Bi2 O19,0.0,1
7944,Sb8 S8 N8 F48,3.3272,61
7945,Tb48 Se90,0.0871000000000004,1
7946,Ir7 Se21,0.0,1
7947,Cu9 S5,0.0,1
7948,Hg36 As36 S72,0.9166999999999998,7
7949,Tm20 Ti12 O54,1.9486999999999997,8
7950,Cd2 Ge2 O6,1.7144000000000001,9
7951,Sr5 Li25 La7 Nb8 O48,3.2108999999999996,1
7952,Rb1 Na10 Al11 Si13 O48,2.5018,1
7953,Sr2 La14 Mg4 Ga12 O45,2.7211999999999996,1
7954,P4 H35 C4 N16 O16,0.0,2
7955,K6 H2 Rh2 C10 N10 O2,3.8355999999999995,2
7956,Hg8 Te24 H96 C32 N8,0.6397999999999999,14
7957,Li2 Fe4 P6 O24,0.0,12
7958,Sr51 W12 N56 O3,0.12019999999999964,2
7959,Li2 Cr2 P8 O26,0.0,1
7960,Fe9 Cu3 O16,0.0,2
7961,Ca14 Al6 Si20 N42,0.0,1
7962,Zn2 H12 C4 N8 O8,4.6747,7
7963,H12 Cl4 O20,3.4848,62
7964,H16 S16 O56,2.184,15
7965,P4 H32 C8 N4 O16,5.3301,82
7966,Ca4 H24 C8 N16 O16,4.6548,14
7967,Re4 H48 C8 S8 N16 Cl20 O12,0.6434,14
7968,Rb14 Na3 Al17 Si31 O96,2.0598,1
7969,Zn2 H24 C12 S4 N20 O4,3.7795,15
7970,Li9 Co9 O17,0.6470000000000002,1
7971,Li16 H16 C16 O32,5.0243,15
7972,V2 Bi4 O11,2.4967999999999995,1
7973,Li2 Fe6 Si2 P2 O16,2.5643000000000002,7
7974,V2 P2 H12 C4 N6 O14,1.7746,2
7975,Ca11 Y1 Al15 Cr4 Si1 O48,0.0,5
7976,Al4 Cu2 O8,0.0,74
7977,Li4 Cu1 F5,1.0967000000000002,87
7978,Li1 Ag2 F4,0.0,82
7979,Li4 Cu2 P2 O8,1.9750000000000005,4
7980,Pr1 Y1 O2,0.0,166