Index,Composition,bandgap,spgN
10488,Li9 Co7 O16,0.24309999999999965,1
10489,Li9 Co7 O16,0.1378999999999997,12
10490,Li9 Co7 O16,0.0,2
10491,Li9 Co7 O16,0.027499999999999858,12
10492,Li9 Co7 O16,0.4165000000000001,2
10493,Li9 Mn2 Co5 O16,0.0,2
10494,Li9 Mn2 Co5 O16,0.49070000000000036,5
10495,Li9 Mn2 Co5 O16,0.37550000000000017,5
10496,Li9 Mn2 Co5 O16,0.3096000000000001,2
10497,Li9 Mn2 Co5 O16,0.35139999999999993,2
10498,Li9 Mn2 Co5 O16,0.0,2
10499,Li9 Mn2 Co5 O16,0.0230999999999999,2
10500,Li9 Mn2 Co5 O16,0.32089999999999996,1
10501,Li9 Mn2 Co5 O16,0.10760000000000014,1
10502,Li9 Mn2 Co5 O16,0.5736999999999997,1
10503,Li9 Mn2 Co5 O16,0.07989999999999986,1
10504,Li9 Mn2 Co5 O16,0.3604000000000003,1
10505,Li9 Mn2 Co5 O16,0.10289999999999999,1
10506,Li9 Mn2 Co5 O16,0.08519999999999994,1
10507,Li9 Mn2 Co5 O16,0.4190999999999998,1
10508,Li9 Mn2 Co5 O16,0.0,1
10509,Li9 Mn2 Co5 O16,0.6797,1
10510,Li9 Mn2 Co5 O16,0.4615,12
10511,Li9 Mn2 Co5 O16,0.4152,3
10512,Li9 Mn2 Co5 O16,0.0,12
10513,Li9 Mn2 Co5 O16,0.5676000000000001,12
10514,Na8 Sb12 O32,0.0,212
10515,Li3 V3 Fe3 O12,1.6002999999999998,1
10516,Li2 Mn2 P8 O24,1.759,15
10517,Li8 Mn8 P8 O32,2.5051,33
10518,Li4 Ni8 O4 F12,2.7062,62
10519,Li4 Fe8 F28,3.5944000000000003,33
10520,Li2 Bi8 O14,0.0,2
10521,Li2 Cr2 P2 O8,2.0654000000000003,5
10522,Li18 Si4 Ni2 O20,0.0,1
10523,Li10 Fe8 P8 O32,0.038300000000000445,9
10524,Li4 Nb2 V3 Sn3 O16,0.0,8
10525,Li4 Fe3 Sb1 P4 O16,0.19769999999999932,6
10526,Li4 Fe1 Co2 Ni3 P6 O24,0.0,1
10527,Li12 V8 P12 O48,2.0509999999999997,15
10528,Li12 V8 P12 O48,2.036,1
10529,Li12 Cr8 P12 O48,2.0933,15
10530,Li12 V6 Si12 O42,1.3923,1
10531,Li2 V1 Cr3 O8,1.1213000000000002,12
10532,Li15 Fe15 Si1 O32,1.8233,1
10533,Fe10 O14 F6,0.0,1
10534,Cs4 Li4 O4,1.3896,139
10535,Cs4 H12 Se8 O32,3.3682,14
10536,Co5 P8 O28,0.0,2
10537,Co6 C6 O21,0.7916000000000001,5
10538,Sc1 Zn1 Cu3 Se4,0.8169,215
10539,Sr1 O10,0.010800000000000032,1
10540,Sr1 U1 O4,1.8098,12
10541,Sb4 H48 C16 N4 F16,3.8366999999999996,14
10542,Hg4 N4 O16,0.22960000000000003,14
10543,H12 C4 I4,3.3781000000000003,62
10544,Mo4 H24 C8 N4 O30,2.9078999999999997,14
10545,Dy2 Br6 O12,1.6673,13
10546,Co1 Cu3 Hg1 Se4,0.0,215
10547,Ca2 O20,0.0,124
10548,Ca2 O20,0.0,124
10549,Fe16 H20 O34,1.3409,1
10550,Cs12 P4 Se8 O48,0.02739999999999987,14
10551,Ag3 As1,0.0,139
10552,Ce1 Pr1 Mg2,0.0,225
10553,Dy3 Zr1,0.0,139
10554,Ce2 Pm6,0.0,194
10555,Er3 Sn1,0.0,139
10556,Eu1 Zn1 Au2,0.0,225
10557,Ga6 Hg2,0.0,194
10558,Ho3 Ga1,0.0,221
10559,La3 Ce1,0.0,139
10560,Li3 Ni1,0.0,139
10561,Li6 Ni2,0.0,194
10562,Mg16 Al12 V1,0.0,217
10563,Pm2 Eu6,0.0,194
10564,Sm2 Eu6,0.0,194
10565,Ta1 Ti3,0.0,225
10566,Tb3 Eu1,0.0,221
10567,Tb2 Bi6,0.0,194
10568,Tm2 Tc1 Ag1,0.0,225
10569,Yb6 Si2,0.0,194
10570,Yb6 Sm2,0.0,194
10571,Hg4 I12,0.0,26
10572,Si6 Mo10,0.0,193
10573,V12 Ga8,0.0,213
10574,Nb10 Si6 P2,0.0,193
10575,Ca4 P4 O16,0.0,2
10576,Ce2 Fe12 Co5 N3,0.0,166
10577,K4 Fe2 P4 O14,3.2923,113
10578,Na2 Zr2 Si4 O14,0.0,2
10579,Ti16 Cu8,0.0,227
10580,Fe12 O16,0.6310000000000002,57
10581,Li4 Fe4 P8 H8 O24,2.8004000000000002,122
10582,Ni12 C8 O31,0.0,215
10583,Mn2 B20 H52 O16,4.1247,15
10584,Ca4 Be4 As4 O20,0.5697,14
10585,Nd8 H104 C44 N4 O84,3.5384,14
10586,As4 H40 C12 I4,3.4942,62
10587,U4 H100 C48 N4 O32,2.3945,33
10588,Cd4 Mo30 Se38,0.0,167
10589,K4 Sr4 P12 H44 N12 O40,4.8941,14
10590,K8 Mo4 O12 F16,0.42599999999999993,14
10591,Tb12 Fe20 O48,1.3125999999999998,148
10592,Cr8 B48 P16 H272 C48,0.7475999999999999,61
10593,Rb2 Cu6 P6 O16 F12,0.0817000000000001,15
10594,Cr4 Cu8 O24,0.0,14
10595,K8 Al8 P8 O40,0.021399999999999864,52
10596,B16 Pb24 O52,0.0,62
10597,Rb8 Cu4 C8 O28,0.0023000000000000034,14
10598,B80 H120 C12 N8,3.0416999999999996,19
10599,Er6 Al4 Ni12 H14,0.0,229
10600,Cs6 P2 Se4 O24,0.00670000000000015,15
10601,Sr5 Ti7 O19,1.7805,47
10602,K8 I16 O48,0.24540000000000006,29
10603,In2 Ge4 P2 H48 C16,3.3745000000000003,2
10604,Eu4 H12 C4 S4 O28,0.008799999999999988,76
10605,U2 H12 C4 Se2 N6 O14,2.0787,2
10606,Sn8 H48 C16 Cl8 O4,3.8472999999999997,14
10607,Sb16 Cl56 O48,0.08240000000000003,14
10608,Zn3 Si12 H78 C26 O4,2.8006,2
10609,Co4 As12 O4 F72,0.0,62
10610,Mg4 P8 H40 N8 O32,4.6937999999999995,14
10611,K8 I12 N4 O48,0.1346,19
10612,Si8 H20 C4 N4 Cl16,5.0422,14
10613,Pr4 B20 O40,0.0008000000000000229,14
10614,Ca4 Si12,0.0,139
10615,Rb3 U1 F6,0.0,139
10616,Eu2 Ho1 Ta1 O6,0.5225000000000009,225
10617,Li2 Al2 Au2,0.0,194
10618,Sr2 La1 Sb1 O6,3.3776,225
10619,In2 Au3,0.0,164
10620,Sr2 Cr1 W1 O6,0.0,225
10621,Li1 In1 Ir1,0.0,187
10622,Zr12 Ga4 Co2 H20,0.0,190
10623,Zn4 In1 S6,0.0,164
10624,Zr12 Ga4 Fe2 H20,0.0,190
10625,Cu2 S1,0.0,225
10626,U2 H20 C2 Se4 N8 O16,2.0846999999999998,2
10627,S48 N16,1.6565999999999999,61
10628,Pr4 Mo4 O20,0.046499999999999986,14
10629,Na2 Be6 Al4 Si12 O38,0.0,192
10630,Na10 Ce2 O12,0.0015999999999999348,15
10631,Na4 Ho2 Nb10 O30,1.9643000000000002,127
10632,Mg4 Mn4 Zn4 Si4 O24,0.8698000000000001,64
10633,Mn1 Ga1 Fe2,0.0,139
10634,Hf27 Si6 P10,0.0,71
10635,Cs2 Lu2 Mo4 O16,2.9061000000000003,15
10636,Er7 Co6 Sn23,0.0,164
10637,Ce16 Mg4 Rh4,0.0,216
10638,Bi8 Se4 O28,0.0,14
10639,Ag2 H24 C12 N26 O6,3.1725,2
10640,Zr1 U1 O4,0.0,166
10641,Zr1 In1 Au2,0.0,123
10642,Zr5 S8,0.0,216
10643,Zr3 Mn8 Si1,0.0,156
10644,Zr3 Fe8 Si1,0.0,160
10645,Y2 Mn2 Fe2,0.0,74
10646,Y7 Re1 O14,0.8428,166
10647,Y3 Ho1 C8,0.0,123
10648,Y4 Al4 Ni4,0.0,38
10649,V4 Cr4 Co4,0.0,38
10650,V4 N3,0.0,139
10651,V3 Ga1,0.0,65
10652,Tm1 Al6 Cr6,0.0,71
10653,Ti1 V1 N2,0.0,166
10654,Ti1 Cu1 Ni2,0.0,123
10655,Ti5 S8,0.0,160
10656,U2 Ga5 Cu3,0.0,99
10657,U2 Sn3 Pb3,0.0,47
10658,Tc3 Pd1,0.0,187
10659,Tb1 Nd1 Fe17,0.0,160
10660,Sr1 Y1 Co1 O4,0.0,107
10661,Ta3 Fe8 Si1,0.0,156
10662,Ta6 Co18,0.0,164
10663,Sr4 U3 Zn1 O12,0.0,2
10664,Sr4 Mn2 Ga2 O11,0.0,69
10665,Sr2 Si3,0.0,44
10666,Sr10 Ca4 Cu10 Bi11 O40,0.0,87
10667,Ta10 Cr2 Ni2 S20,0.0,156
10668,Sm1 Fe10 Si2,0.0,69
10669,Re18 Mo12,0.0,35
10670,Sm2 Ga2 Fe15 C2,0.0,8
10671,Pr1 Tl2 In1 Se4,1.5206,121
10672,Np1 Al8 Cr4,0.0,139
10673,Nd1 U1 Co10,0.0,47
10674,Nb5 Ir7,0.0,25
10675,Nb32 P20,0.0,26
10676,Pr4 Al1 Co25,0.0,65
10677,Na1 V4 Cd3 O12,0.26000000000000023,6
10678,Na1 V6 O14,0.22199999999999998,8
10679,Mo2 Rh1,0.0,69
10680,Mo2 H2 O6,0.7548999999999999,5
10681,Mn4 Si3 Ni5,0.0,38
10682,Mn2 Re2 Pb4 O12,0.0,74
10683,Na2 Ca1 V12 O32,0.0766,8
10684,Mg3 Fe1 O4,0.0,166
10685,Mg8 Al4 Cu2 Si7,0.0,6
10686,Li1 Pr1 S2,0.2531000000000003,123
10687,Lu1 Ga1 Cu1 O4,0.0,160
10688,Li1 Cr4 In1 S8,0.01589999999999936,160
10689,Lu4 Al4 Ni4,0.0,38
10690,Mn31 Si11 P1,0.0,143
10691,Nd8 Ti6 Fe50 B4,0.0,35
10692,Li24 I10 N5,0.5832000000000002,121
10693,Ho2 Al1 Ge4,0.0,38
10694,Hf4 O8,3.8289000000000004,18
10695,Hf3 N2,0.0,160
10696,Hf2 Ni1 S4,0.0,12
10697,Ge6 Te6 Ir4,0.0674999999999999,12
10698,Fe2 Ni1,0.0,164
10699,Fe2 P4 W2,0.0,26
10700,Fe15 O16,0.0,166
10701,Fe2 Cu2 Bi4 As4 O24,0.0,2
10702,Fe3 P2 O10,0.0,12
10703,Dy1 Si1 Ag1,0.0,187
10704,Er2 Co4 B8 Rh4,0.0,105
10705,Er2 Fe2 Co2,0.0,74
10706,Er4 Cr1 Se7,0.0,8
10707,Cu1 Ni3,0.0,65
10708,Er4 Al4 Ni4,0.0,38
10709,Co1 Ir1,0.0,187
10710,Co1 Ni1 Se2,0.0,164
10711,Cr1 Ni1 Sb2,0.0,164
10712,Cr3 Mo1,0.0,65
10713,Cr2 Sb1 As1,0.0,187
10714,Ce1 Th1 C2,0.0,166
10715,Cd1 Sn1 Te2,0.0,166
10716,Ce1 Mn4 Co8,0.0,139
10717,Ce2 Mg1 Zn1,0.0,123
10718,Ca1 Mn1 S2,0.38290000000000024,166
10719,Ce6 Si2 N6 O4,0.0,42
10720,Ca1 Mg2 Al4 Si1 O12,0.12190000000000012,1
10721,Ca1 Bi1 N1 O5,2.2944,44
10722,Be16 Ru2,0.0,187
10723,Ba1 Bi1 Cl1 O2,1.5406,107
10724,Al3 Mo8 S16,0.0,115
10725,B4 Ru2 W2,0.0,26
10726,Al4 Ni15,0.0,123
10727,Ag1 Sb1 Se1 S1,0.0,123
10728,Al2 Si6 O16,0.0,7
10729,Ag3 Ge1,0.0,187
10730,Ba4 Ca1 Gd3 Co8 O22,0.0,42
10731,Ba2 Na2 Cu2 Cl2 O4,0.0,99
10732,O3 Lu2,4.0808,164
10733,N2 Ca3,1.4782999999999995,164
10734,Cr2 Sb2,0.0,194
10735,O16 Zn4 Mo6,1.5308000000000002,186
10736,O12 Al8,5.313199999999999,60
10737,Mn2 Sn1 S4,0.0,65
10738,Sn4 Hf4,0.0,198
10739,B50,0.0,134
10740,O12 Na4 Sb4,1.2740000000000005,62
10741,Li4 Sb4 Pr2,0.0,129
10742,Fe3 Sn1,0.0,221
10743,Ag1 I1,0.7690000000000001,225
10744,O3 Cr1 Sr1,0.031199999999999672,221
10745,O8 F2 P2 Co2,0.0,2
10746,O2 Ni1,1.5194999999999999,166
10747,H24 C8 O24 Ni4,4.2196,14
10748,B2 N2,5.2082999999999995,186
10749,Li5 Na1 Sn4,0.0,160
10750,Tl1 Bi1 Te2,0.4683999999999999,166
10751,S4 Fe2 Ba1,0.0,87
10752,C2 Na4 S6,1.215,15
10753,C4 S14 Cl12,2.8703,2
10754,O20 Si8 Ca4,4.7791999999999994,2
10755,Ti1 Ru1 Sb1,0.0,216
10756,Co1 Sb1 Ta1,0.0,216
10757,Co1 P2 O7,0.0,1
10758,O32 P8 Co6,0.008,14
10759,Mg10 Fe9 O24,0.0,1
10760,Cd2 La4 Se8,1.0990000000000002,122
10761,O12 P8,3.8266,11
10762,Ho10 O27 Ti6,2.5592000000000006,8
10763,Er4 S8 Sr2,2.2745999999999995,122
10764,Mn2 As2 Sr1,0.0,164
10765,O24 Ce4 W6,0.07929999999999993,15
10766,O14 P4 Fe2,0.0,2
10767,Fe4 O28 P8,0.0,11
10768,O12 C12 N12 H32,3.0245,14
10769,Sr2 Ca1 Cu2 Bi2 O8,0.0,139
10770,Sb8 Ru2 C12 O12 F44,4.4456,14
10771,Nb4 Sn4 O14,0.8633000000000006,227
10772,Sr2 Ta4 Bi4 O18,1.5824,36
10773,Sn1 H58 C16 S4 N22 O18,4.6716,2
10774,H32 C12 N8 O4,4.6949000000000005,14
10775,Si16 O32,5.685499999999999,121
10776,Ba2 Mn4 O16,1.9074,70
10777,K4 Ni1 N6 O12,2.0757,148
10778,Ti2 Te2,0.0,194
10779,Fe4 Se8 N4 Cl24,1.3134000000000001,14
10780,Nd1 Ir5,0.0,191
10781,Cu4 Te16 H48 C16 N4,0.4093,14
10782,Sn2 H92 C36 Br8 N4,3.7146,14
10783,K2 Sn2 Se4,0.0,108
10784,Cr44 Ge32,0.0,62
10785,Np1 Si2 Ni2,0.0,139
10786,Si2 Ce1 Pt2,0.0,139
10787,Ga6 H114 C48,3.558,167
10788,Fe2 B4 W4,0.0,127
10789,Pb12 N72,2.2802000000000007,33
10790,In16 Se8,0.0,58
10791,Ge7 H18 O23,2.946,1
10792,Li4 V4 Te4 O20,3.0595,19
10793,Ti2 Fe2 H4,0.0,65
10794,Nd1 Mg2 Ag1,0.0,225
10795,Ce10 C4 Cl18,0.00020000000000042206,2
10796,Gd5 Ru2 O14,0.0,12
10797,Y1 Zr9 O20,0.0,1
10798,K6 Sn2 Sb6,0.23940000000000028,2
10799,Li5 Au1 O4,2.1316,2
10800,Lu4 H12 O12,3.2310000000000003,1
10801,Zn4 Cu4 As4,0.0,7
10802,Y1 Al6 Si18 N30 O2,0.0,1
10803,Ba8 Tl2 Bi2 Pb4 O17,0.0,1
10804,K8 Ag8 C16 S16 N16,2.9337,61
10805,K4 Mg2 H16 S4 O23,3.6738,1
10806,Na6 Mg2 Al2 Si14 O36,4.810500000000001,5
10807,Na18 Ca2 Ta18 Ti2 O60,2.5386999999999995,6
10808,N1 Mn1,0.0,225
10809,Na1 Sr8 La1 Ti10 O30,1.8021999999999996,123
10810,Mn6 P8 O32,0.0,15
10811,Li2 Al2 Si4 H4 O14,3.9817,1
10812,Fe21 Ni9 O40,1.3781000000000003,1
10813,Yb4 Ba2 Mo8 O32,0.0,15
10814,Li2 Ni2 P10 O30,0.0,7
10815,Li8 B8 H16 C32 O72,3.351,61
10816,Li20 Si2 P4 O24,5.1063,1
10817,P2,0.0,74
10818,U4 H64 C16 N16 O48,1.9701,14
10819,K6 V2 H12 C8 O26,2.9186,2
10820,K4 Fe2 H8 S4 O20,0.0,1
10821,V4 P4 H12 Pb2 O28,0.7684,9
10822,Co4 H76 S12 N20 O44,0.7462,14
10823,P4 H8 N4 F8,4.713,14
10824,Yb1 Na1 O2,0.0,12
10825,U3 O5,0.0,1
10826,Bi8 O8 F8,2.3179,11
10827,Li12 Bi4 O12,2.9917000000000002,198
10828,Cs8 Ca4 O8,2.3181000000000003,60
10829,Li4 Cu2 S4,0.0,8
10830,Sm4 Cu4 O10,0.0,55
10831,Ca2 Gd4 O8,2.4804,63
10832,Ba4 Sr4 I16,3.2802000000000002,14
10833,Na10 Cu2 O8,0.0,59
10834,Li4 Ti2 Cu2 O8,0.0,74
10835,Li2 Ni2 S4,0.0,1
10836,In4 Sn4 O14,0.2812000000000001,227
10837,Li3 Cu3 P2 O8,0.8020000000000005,1
10838,Ti2 Bi4 O10,1.7454,63
10839,Tl6 S1,0.0,1
10840,K2 Rb2 O2,1.2445,129
10841,Eu1 Zr4 O9,0.27859999999999996,1
10842,Ba2 Na8 O6,1.3921999999999999,9
10843,Nd4 Zr4 O12,0.05090000000000039,119
10844,Lu4 B6 O15,5.2305,146
10845,Nb4 P4 O18,0.0,64
10846,Dy4 Ti2 O10,3.0481,63
10847,Li2 Sn2 P8 O24,0.0,4
10848,Nd1 Al11 O18,2.899499999999999,2
10849,Li4 Si4 Bi4 O16,3.3301999999999996,14
10850,Li4 Si4 Bi4 O16,2.8189,33
10851,Ti5 Pb5 O14,0.4157000000000002,1
10852,Ti11 H7 O24,0.0,6
10853,Li4 Sn4 P8 O28,0.0732999999999997,14
10854,Li12 Si12 Bi12 O48,3.1337999999999995,33
10855,Li4 Sn4 P16 O48,0.08929999999999971,14
10856,Li4 Ti4 P8 O28,0.036000000000000476,14
10857,Li4 Nb2 P4 O16,0.3167,7
10858,Li6 Sn4 P6 O24,0.0,12
10859,Li12 Ti8 P12 O48,0.00140000000000029,5
10860,Li4 Cu4 P4 O16,0.2124999999999999,62
10861,Li12 Cu4 P4 O20,0.23329999999999984,33
10862,Li6 Ti4 P6 O24,0.028500000000000192,15
10863,Li8 Cu4 P16 O48,0.09329999999999994,14
10864,Li4 Bi4 P16 O48,3.2667,60
10865,Li4 Sb4 P8 O28,4.0237,14
10866,Sb24 O20 F32,2.9281,14
10867,Er2 B2 O6,4.5583,40
10868,Sr2 U4 O11,0.0,1
10869,Cu8 O2 F12,0.18480000000000008,1
10870,Zr2 Co2 O6,0.0,148
10871,Li12 V8 P12 O48,0.0,230
10872,Li2 Fe1 Si6 O15,0.18869999999999998,2
10873,Cu1 Ni3 O4,0.0,65
10874,Li7 Mn11 Si6 O32,0.28790000000000004,1
10875,Li16 Cr8 P8 O40,2.3447999999999998,14
10876,Li8 Ni4 P16 O48,4.5107,14
10877,Li12 Fe4 P8 O32,1.9249999999999998,14
10878,Nb2 Co6 O16,0.0,9
10879,Li12 Cr8 P12 O48,2.096,1
10880,Li2 Sb2 P2 O10,0.0,9
10881,V1 Ni3 Sb2 P6 O24,0.0027000000000003688,146
10882,Li3 La3 Nb12 O36,1.3084,8
10883,Li5 Cr2 Fe3 P6 O24,1.0918,1
10884,Mn2 C4 O12,1.2556999999999998,14
10885,Li4 Co4 C4 O16,0.8183,37
10886,Na16 Nb10 O28,0.2504999999999997,2
10887,Li4 Ti4 P8 O28,0.14650000000000052,14
10888,Li8 Cr4 Si4 O16,1.5431,33
10889,Li2 Co2 C4 O12,0.33730000000000004,9
10890,Li4 Mn3 Nb3 Fe2 O16,0.3426,1
10891,Li3 Fe5 P6 O24,1.8148,1
10892,Li6 Fe6 P8 O32,1.7249999999999999,2
10893,Li4 Ti4 Mn10 O24,0.7539000000000002,4
10894,Li4 Fe4 Si4 O16,2.3506,14
10895,Li3 V3 Fe2 O10,1.4220000000000002,2
10896,Li6 Fe2 Si2 O10,2.1731,2
10897,Li8 Fe4 P8 O32,0.0,1
10898,Li9 Fe4 Si4 O20,0.0,1
10899,Li1 Mn1 P3 O9,4.3219,146
10900,Li2 Fe2 Si2 O7,3.0949,1
10901,Li40 Fe8 Si16 O64,2.0034,62
10902,Co10 O15 F5,0.0,38
10903,Li2 Fe4 O2 F10,1.9765,5
10904,Li2 Mn2 F8,0.4745,63
10905,Fe12 O12 F12,0.0,6
10906,Li8 V4 O8 F4,1.6052000000000004,6
10907,Li8 V4 O8 F4,1.6982,1
10908,Li8 Co2 O8,0.9940999999999999,94
10909,Li9 Mn4 B8 O24,0.0,1
10910,Li10 V5 O10 F5,0.27300000000000013,1
10911,Li8 Co8 Si12 O36,2.8418,62
10912,Li8 Co2 Si6 O18,2.9379,5
10913,Li4 Co4 C4 O16,0.9209999999999999,14
10914,Li3 Mn1 F6,1.4794,12
10915,Li10 V2 P6 O24,1.5841,1
10916,Li12 V8 O16 F8,0.9591999999999998,1
10917,Li2 Co4 C6 O18,0.4303999999999999,1
10918,Li4 V4 P4 O20,2.6757,14
10919,Li1 V1 P3 H1 O10,2.1948,5
10920,Co6 C6 O21,0.47699999999999987,5
10921,Li6 Mn1 O6,0.0,2
10922,Li2 V6 F20,1.7053,51
10923,Li1 Mn1 P3 H1 O10,0.9313000000000001,5
10924,Li4 Mn8 O4 F12,1.8294,62
10925,V3 Cr3 Te2 O16,1.1065,1
10926,Rb8 Li4 V4 P8 O32,2.1295,19
10927,Li8 V4 O8 F4,1.7317999999999998,8
10928,Mn6 O2 F12,0.47759999999999997,2
10929,Li4 Mn3 Nb3 Sn2 O16,0.0,8
10930,Cr8 O20 F8,2.3236,114
10931,Cr4 Cu1 O12,0.0,5
10932,Li2 V2 P2 O10,2.2049000000000003,7
10933,Li2 V1 F4,2.701,65
10934,Li4 Nb3 Fe2 Ni3 O16,0.4647999999999999,1
10935,Li4 V4 O4 F12,1.1513,5
10936,Mn2 O2 F2,0.0,59
10937,V4 O4 F6,0.0,63
10938,Li4 Mn4 F20,1.652,76
10939,Co8 O12 F4,0.0,63
10940,Li12 V8 O16 F8,1.0161000000000002,1
10941,Li1 Y3 W1 O8,2.7868,21
10942,Li12 Cr5 O16,0.5859999999999999,1
10943,Li4 Fe1 O2 F2,2.9078,1
10944,Na8 V8 O20,1.2664,14
10945,V6 O12 F6,0.7834,2
10946,Li4 Fe8 B8 O24,1.4483,1
10947,Mn12 O5 F19,0.10699999999999998,1
10948,Li8 V2 O6 F4,1.6584999999999999,15
10949,Fe4 O6 F2,0.0,6
10950,Li8 V4 O4 F16,0.8844,6
10951,Li8 Mn2 O4 F4,2.7762000000000002,63
10952,Fe4 O2 F6,0.45369999999999977,74
10953,Li12 V4 O10 F4,1.7800000000000002,2
10954,Li2 V2 P4 O14,2.5941,4
10955,V12 O8 F20,1.2925999999999997,62
10956,Li4 Mn2 O2 F6,0.5323,7
10957,Li8 Mn3 Cr1 O12,0.9127999999999998,1
10958,Li4 Mn1 O2 F3,1.2721,1
10959,Mn2 H16 N4 F12,3.1861,186
10960,Li4 Ag4 F16,0.0,11
10961,Li3 V4 O7 F5,1.1683000000000001,1
10962,Li9 Ti7 Cr6 O30,0.0,1
10963,Li8 V1 Co3 P6 O24,0.0038000000000000256,1
10964,Li12 V12 O12 F24,1.4401,1
10965,Li12 Ni4 O8 F4,2.6784,4
10966,Li6 Ni1 O1 F6,1.941,71
10967,Na5 Mn7 O16,0.0,1
10968,Li6 V5 Sb1 O12,0.8316999999999997,12
10969,Co8 O12 F4,0.0,38
10970,Li20 Mn4 O12 F4,2.0827999999999998,62
10971,Li4 Mn8 O4 F12,1.3783,62
10972,Hf4 Co4 O12,2.4865,62
10973,Li14 V2 O8 F4,0.6600000000000001,1
10974,Li2 V2 F6,1.9761,194
10975,Li1 V3 O4 F2,1.2103000000000002,1
10976,Co2 Sb2 O8,0.0,74
10977,Li2 Fe2 P2 O8,3.4131,5
10978,Li4 Cr1 Co3 O8,0.33000000000000007,12
10979,Mn2 F6,1.3373,12
10980,Li2 Ni2 P8 O24,1.0499,15
10981,Na4 W6 O20,3.9794,15
10982,Li11 V12 Co4 O32,1.0219000000000005,5
10983,Ba4 Ca8 I24,3.3113,14
10984,Ba6 Ca11 I34,3.4085,2
10985,Li20 Cu8 S18,0.0,137
10986,Li3 V1 F8,1.9215,12
10987,Li4 Mn4 O2 F12,1.504,15
10988,Li4 V4 Si4 O16,1.9342000000000001,2
10989,Li2 V2 P4 O16,1.0161,14
10990,Li4 V4 Si4 O16,2.2075,7
10991,Li1 Mn3 O4 F2,0.4081999999999999,1
10992,Mn2 P2 O8,0.5700000000000001,9
10993,Li20 Cr2 Si4 O20,0.8188,1
10994,Li4 Dy2 P2 C2 O14,4.784800000000001,11
10995,Li4 Si4 Ni2 O12,3.4086,4
10996,K2 Li2 Sb6 O16,0.28859999999999975,1
10997,Li12 Mn3 O3 F15,0.13239999999999996,8
10998,Li4 V4 Si4 O16,1.3802000000000003,62
10999,Li8 Cr3 Te1 O12,0.8811,3
11000,Li12 Mn2 Fe3 O16,0.0,1
11001,Li4 V4 Si4 O16,2.1243000000000003,2
11002,Li4 Mn2 O2 F4,1.5452,63
11003,Li4 V2 Cr3 Co3 O16,0.0,8
11004,Li4 Mn3 O2 F6,2.5187,2
11005,Na4 Ge2 P2 C2 O14,0.0,11
11006,Li2 Si2 P2 C2 O14,5.7639,4
11007,Li4 Tm2 P2 C2 O14,4.8642,11
11008,Li16 Nb2 S12,0.0,1
11009,Na4 Sn2 B2 P2 O14,1.8591999999999997,11
11010,Ba6 Y4 I24,2.3958,127
11011,Li4 Bi8 B4 O20,1.7318000000000007,62
11012,Li4 Bi8 S12 O48,0.6097000000000001,14
11013,Ba6 Sr6 I24,3.1709999999999994,161
11014,Li40 B8 O32,5.3519,61
11015,Ba4 Y12 Cl44,4.2205,19
11016,Li6 Cu6 H6 C6 O24,0.3752000000000001,176
11017,Ho4 Bi4 O14,0.0,227
11018,Si4 Bi8 O20,2.6223,62
11019,Li8 Ti8 V8 Ni2 O36,1.1804000000000006,1
11020,Li10 Ti8 Co6 O32,0.33640000000000003,1
11021,Li11 Nb4 Ni9 O24,1.2260999999999997,1
11022,Li6 Mn4 Si4 O16,0.0,4
11023,Li3 Al3 V3 O12,1.4085999999999994,1
11024,Li4 V2 Cr6 O16,0.8100999999999998,1
11025,Sr4 Li4 Ni2 O8,2.7003000000000004,2
11026,Hf4 Cr4 O12,1.5871000000000004,62
11027,Sc4 Co4 O12,0.0,62
11028,Li6 Mn2 P2 C2 O14,3.7565999999999997,2
11029,Li4 Cr5 Bi1 O12,0.0,12
11030,Li3 Mn1 Cr4 O8,0.6288,12
11031,V4 Ga4 O12,1.4157000000000002,62
11032,Tb4 Pr4 O16,0.0,14
11033,Li4 Cr6 Fe2 O16,0.0,1
11034,Li3 Ti2 Co1 O6,0.28000000000000025,12
11035,Li8 Cr6 Fe2 O16,2.3743000000000003,2
11036,Tl2 Co2 O6,0.0,148
11037,Li8 V4 B4 O16,2.3718,33
11038,Li8 Cr6 Fe2 O16,2.4179,2
11039,Li12 V4 B4 O20,1.8590000000000004,33
11040,Ho6 Er6 O18,3.0775000000000006,185
11041,La4 Ti3 O12,1.8730000000000002,2
11042,La4 Mg4 I20,2.5768999999999997,14
11043,Li2 Cr4 O6,0.0,15
11044,Li4 Ti3 V2 Co3 O16,0.0,1
11045,Li4 Cr8 O20,0.0,62
11046,Li4 Al4 Fe4 O16,0.0,62
11047,Ga8 W4 O24,2.8695999999999997,13
11048,Li2 Al2 Fe1 O6,0.0,5
11049,Li4 Sn2 C2 S2 O14,3.7891000000000004,11
11050,Li4 Ti1 Mn5 O12,0.035600000000000076,12
11051,Li8 Co4 C8 S2 O32,0.06580000000000008,1
11052,Li5 Ni5 Sb2 O12,0.0,5
11053,Fe2 Ni3 P6 W1 O24,0.9691000000000001,146
11054,Li2 Fe3 Ni1 O8,0.0,160
11055,Ba12 Y8 O24,2.5398,55
11056,Nb8 Ge8 O28,1.8118,4
11057,Co1 Te1 O4,0.7254,10
11058,Mn12 Fe4 O32,0.0,1
11059,Li4 V1 Te3 O12,0.0,1
11060,Li8 Mn4 B4 O16,0.6277000000000001,14
11061,Li6 Mn2 B2 As2 O14,0.9886999999999999,11
11062,Na4 Mn2 B2 S2 O14,1.368,11
11063,Li6 V2 P2 C2 O14,2.7478000000000002,4
11064,Sr8 Ca4 I24,3.0769999999999995,14
11065,Li4 Ti2 V4 O12,0.9608999999999996,64
11066,Li3 Mn1 Cu2 O6,0.0,12
11067,Li4 V3 O8,0.0,148
11068,Cr3 Fe2 O8,0.0,160
11069,Li4 Mn1 V3 O12,0.3197000000000001,3
11070,Li4 Cr5 Co3 O16,0.0472999999999999,1
11071,Ba8 La4 Cl28,3.6471,14
11072,Sn1 Sb3 P4 O16,0.0,6
11073,V4 Cr2 O12,0.0,15
11074,Li4 V2 B2 P2 O14,1.7224000000000002,11
11075,Tl6 Co6 O16,0.0,4
11076,Li8 Cr12 O40,2.0244,14
11077,Li2 Fe2 P2 O8,3.2763,9
11078,Li4 Fe2 Si2 C2 O14,0.0,11
11079,Fe8 P8 O32 F8,0.0,33
11080,Li12 Cr2 O8,1.8237,11
11081,Li4 Nb1 Fe5 O12,0.53,12
11082,La8 Zn8 O20,1.5065,62
11083,Ga8 W12 O48,4.2204999999999995,60
11084,Li2 Cr2 P2 O8,1.9808,1
11085,Ba12 La8 I48,2.4533000000000005,14
11086,Li6 Cu6 P4 O16,0.6978,1
11087,Li2 V2 Si2 C2 O14,1.8349,4
11088,Li3 Cr4 Fe1 O8,1.0703999999999994,12
11089,Li4 Mn5 Ni1 O12,0.01540000000000008,12
11090,Li4 Mn1 Fe3 O8,0.5739000000000001,1
11091,Na4 Cu12 O16,0.0,91
11092,Fe6 O5 F7,1.0872000000000002,1
11093,Li8 Ti6 Mn7 O30,0.9131,143
11094,Li2 V2 P2 O8,1.8992999999999993,74
11095,Li4 Ni3 Sb5 O16,0.0,8
11096,Ti3 Sb2 P6 O24,2.1441,146
11097,Li4 V4 Te4 O20,2.5248999999999997,62
11098,Cr4 Te2 P6 O24,0.0,167
11099,Li8 Ti4 Mn8 Fe6 O36,0.0,55
11100,Li4 Mn2 Fe3 Te3 O16,0.8597999999999999,1
11101,Li8 Ti6 V8 Cr4 O36,0.31820000000000004,26
11102,Mn4 Sn2 P6 O24,0.0,167
11103,Li1 V4 Cu1 O12,0.35030000000000006,1