Index,Composition,bandgap,spgN
2066,P2 S6 Fe2,0.0,12
2067,Si48 O96,6.145300000000001,217
2068,Zr2 H72 C32 N8 O32,3.7626999999999997,4
2069,Mn4 H36 C16 N4 O24,2.6307,2
2070,K12 Al4 H24,2.1919,58
2071,K16 V8 H32 C32 O72,2.9132,61
2072,Co4 H68 N24 Cl6 O20,0.3024,58
2073,Cs2 Cu6 As16 H48 C16 I8 O16,2.5000999999999998,2
2074,Zr8 In4 Pd8,0.0,1
2075,Pb4 O6,1.0516000000000005,11
2076,N8 O12,0.9366,19
2077,P8 H24 O24,4.5579,33
2078,Mo2 H4 O8,2.3613,2
2079,Mo2 H8 O10,2.2107,1
2080,Si4 H4 O10,4.5416,1
2081,Fe4 H4 O8,2.1146,87
2082,Fe16 H20 O34,1.3151,1
2083,Pr1,0.0,229
2084,O8 F6 K6 Ti2,2.536,63
2085,Cd2 C8 N12,4.5484,14
2086,Ce1 H3 C3 O6,0.0,160
2087,K1 Cu2 H2 Se2 O10,0.0,12
2088,Mg18 Ge6,0.0,176
2089,Os8 C32 Cl8 O32,2.4779,19
2090,Rh8 C16 Cl8 O16,1.7196,122
2091,K12 Ti4 Cl24,0.0,14
2092,C2,4.1128,227
2093,Rb2 Hg2 C6 S6 N6,1.9375,11
2094,Pu10 Pt6,0.0,5
2095,Sc12 Re8 Si12,0.0,5
2096,Li4 Cu4 P4 O16,0.0,1
2097,Fe4 Rh2 S8,0.0,74
2098,Ca4 Bi6 O13,1.1427999999999998,1
2099,Ca3 Bi12 O18,0.2779999999999996,8
2100,Sc1 V9 N9,0.0,2
2101,Ca5 Th1 F14,4.84,1
2102,Ca6 Nd3 F21,5.2616,8
2103,Na2 Y6 F20,5.5671,131
2104,U4 Bi4 O14,0.0,51
2105,Ti4 Cu2 S8,0.0,1
2106,Zn6 Sn6 Sb12,0.0,8
2107,In4 As2 Se2,0.0,1
2108,K12 Hf6 F36,2.7355,6
2109,Ba24 In19 N11,0.0,8
2110,Cs30 Ag24 C48 I6 N48,2.6729,220
2111,In1 Sb1,0.0,8
2112,Al48 S72,0.0,156
2113,Ca10 F5,0.0,8
2114,Tl4 O6,0.1854,166
2115,Sr22 Nb10 O47,1.7082999999999997,1
2116,Eu2 Al42 O65,1.1410999999999998,1
2117,Li11 Ta37 N48,0.0,143
2118,Sc10 Mn17 S32,0.0,1
2119,Cd16 Bi8 O28,0.5824000000000003,1
2120,Na1 Co3 O6,0.0,1
2121,Ba4 H8 C8 O16,4.6763,19
2122,V10 Co2 O30,0.613,1
2123,Li2 Fe2 P4 O14,1.5153,1
2124,Sr5 La3 Mn8 O16 F8,0.0,1
2125,Na8 P4 H8 C2 O18,2.1219,81
2126,Fe20 Ni10 O40,0.5483000000000002,1
2127,U9 Mo18 O72,0.0,143
2128,K4 B20 H26 O4,3.7309,2
2129,Al16 Fe8 O32,0.0,160
2130,Fe16 Ni8 O32,1.2774999999999999,8
2131,Al16 P16 H32 O88,0.3052,61
2132,Mg16 Si8 H1 O32,0.0,1
2133,Mg16 Si7 H1 O32,0.0,1
2134,Na12 Te2 P12 H24 O60,0.9691999999999998,176
2135,H48 C12 N24 O12,3.5795000000000003,92
2136,Ho1,0.0,229
2137,P4 H8 Rh2 O18,0.00020000000000000573,5
2138,H40 C16 N8 O24,4.7722,15
2139,Zr4 H64 C20 N8 O12 F16,3.7171,41
2140,O8 Hf4,3.393299999999999,62
2141,Co8 H84 S12 N24 O48,0.5585,14
2142,O2 Ba2,2.7670000000000003,129
2143,Rb8 Pr4 O12,0.0,62
2144,Y1 Zr5 O11,0.6757,6
2145,Be2 Cl2 O2,0.0,166
2146,Ti2 O2,0.0,194
2147,Yb1 K1 O2,0.0,166
2148,Pr4 Hf4 O12,0.0,62
2149,Ho4 Sb4 O14,1.3472,74
2150,Br6 Cl6 O6,1.1661,148
2151,Cu3 C3 O9,0.0,6
2152,Ti11 Fe17 O42,1.0425000000000004,1
2153,Li1 V1 C2 O6,1.8881000000000001,155
2154,Fe8 O14 F2,0.0,8
2155,Li4 Fe4 O12,0.3317,9
2156,Li10 Co2 O6 F2,0.16860000000000008,12
2157,Li2 Co4 O2 F6,0.0,166
2158,Li4 Nb3 Ni3 Sb2 O16,0.0,8
2159,Li2 Co4 O8,0.0,2
2160,Na2 Fe16 O24,0.2905000000000002,12
2161,W4 O4 F12,0.0,8
2162,Li4 Fe4 O12,0.0,52
2163,Mn3 Cr2 Te3 O16,0.21930000000000005,8
2164,Na12 Ni4 O8,1.6021999999999998,14
2165,Li1 Fe3 Sn2 S8,0.0,44
2166,Li4 Fe2 B4 O12,0.11149999999999993,14
2167,Ti4 Nb2 P6 O24,0.0,167
2168,Li2 Cr3 Fe1 O8,0.0,2
2169,V2 Sb2,0.0,194
2170,Cr2 Te2,0.0,194
2171,Ni6 S4,0.0,63
2172,Co5 Sn1 O12,0.9953999999999998,12
2173,Li2 Nb2 P4 O14,0.2610000000000001,4
2174,Os1,0.0,225
2175,F8 Ba4,5.9306,194
2176,Np1 Sn1 Rh2,0.0,225
2177,Np2 N4,0.0,136
2178,Ca8 Sn4 S16,1.6020999999999996,14
2179,Ti3 P1 O7,0.0,160
2180,Li6 Fe5 Cu1 O12,0.0,1
2181,U4 Cr6 Si2,0.0,11
2182,Mg1 Sc1 Ga1,0.055400000000000116,216
2183,Li1 Zn1 P1,1.2970999999999995,216
2184,Zn1 Hg3,0.0,221
2185,Zn2 Pb6,0.0,194
2186,Zn3 Ge1,0.0,139
2187,W2 N2,0.0,186
2188,Li1 Ce2 Ru1,0.0,225
2189,Re6 W2,0.0,194
2190,Re3 W1,0.0,139
2191,Rb3 P1,0.42010000000000014,139
2192,Rb3 Pb1,0.0,225
2193,Rb1 Re1 O3,0.0,221
2194,Nd2 Ir1 Ru1,0.0,225
2195,Na1 Te1 O3,0.0,221
2196,Sm3 Zn1,0.0,139
2197,Sn1 Bi3,0.0,225
2198,Yb1 Tm3,0.0,139
2199,Tl3 Zn1,0.0,225
2200,Hg3 Bi1,0.0,221
2201,Na2 Ag2 C4 O8,2.5393999999999997,4
2202,Na2 Ag2 C4 O8,2.5052,7
2203,Na2 Ag2 C4 O8,1.6802,2
2204,Sn4 H64 C16 N12 O48,0.24380000000000002,19
2205,Ge2 Cl2 F2,2.5328000000000004,129
2206,N1 W1,0.0,187
2207,Ge1 Sb1,0.0,139
2208,Li4 Al4 B16,0.0,55
2209,Tl1 Cd1 Te2,0.0,164
2210,Tl1 Cr1 Se2,0.0,160
2211,Ti2 Al1 V1,0.0,216
2212,Tc2 N2,0.0,194
2213,Nb3 Fe1,0.0,225
2214,Y2 Mn4 O8,0.0,166
2215,Zn1 Co4 S8,0.0,166
2216,Ca3 Cu2 O6,0.03699999999999992,8
2217,Ca2 Ni4 S10,0.0,59
2218,Y2 Ni4 O8,0.0,166
2219,Y2 Ni4 O8,0.0,166
2220,Mg4 V8 O16,1.2110000000000003,1
2221,V8 Cu8 O32,0.19350000000000003,14
2222,Mg2 Fe4 O8,1.8052000000000001,8
2223,Zn4 Ni8 O16,0.0,62
2224,Mg1 V4 O8,0.0,166
2225,Mn6 Al4 F30,1.4385,11
2226,Mg2 Fe4 O8,1.8012000000000001,1
2227,Sb20 S12 O20,0.0,1
2228,V8 O16,1.1606,11
2229,Y4 V12 O36,1.5385000000000002,7
2230,Ca2 Ti4 S10,1.2148000000000003,59
2231,Sr2 Ni2 P4 O16,0.007099999999999884,2
2232,Zn4 Sn2 N4,0.0,12
2233,La2 Mg1 W1 O6,0.0,148
2234,Ba4 Ca2 Cu2 Sn4 F28,0.0,1
2235,Ba4 Ca2 Ti4 Cu2 F28,0.3065000000000002,1
2236,Y2 Co2 O6,0.0,194
2237,Si12 W8 O48,3.2039,230
2238,Zn4 Bi2 Sb2 O12,1.3716,11
2239,Zn4 Sn2 Sb2 O12,0.0,11
2240,Zn4 Cr4 O12,0.09839999999999982,62
2241,Ge12 Mo8 O48,2.1637999999999997,230
2242,Y2 Fe4 O8,0.04789999999999983,15
2243,Mg8 Bi16 O32,1.4665,8
2244,Zn8 Ag16 O32,0.0,8
2245,Ca2 Ti2 Si4 O12,0.08790000000000031,15
2246,Zn4 Sb2 W2 O12,1.5862999999999996,14
2247,Mg8 Sn16 O32,1.3005000000000004,8
2248,Zn6 Ag12 O24,0.0,1
2249,Zn6 Sn12 O24,1.0289000000000001,8
2250,Mn8 Zn12 Ge12 O48,0.21419999999999995,230
2251,Mg4 Ag4 As4 O20,0.6999000000000001,19
2252,Zn6 Fe12 O24,1.1383999999999999,1
2253,Mg4 Ni4 As4 O20,0.7646999999999999,19
2254,Ca2 Ti1 W1 O6,0.3479000000000001,1
2255,Ca4 Y2 Mo2 O10,1.6567999999999996,9
2256,W16 O32,1.3962000000000003,1
2257,Ho3 Pu1,0.0,221
2258,Cr1 Ni3,0.0,225
2259,Ca3 Sb1 As1,0.40180000000000016,221
2260,Na12 Co8 Ge12 O48,0.0,230
2261,Li12 Fe8 Ge12 O48,0.0,230
2262,Li4 Ni8 P8 O36,0.0,62
2263,B2 Sm1,0.0,191
2264,Ca1 V1 O3,0.0,221
2265,Hf1 Mg6 Bi1,0.0,38
2266,Mg6 Cd1 Si1,0.0,38
2267,U1 Bi1,0.0,221
2268,Li1 Mg6 Sb1,0.0,38
2269,Li1 La1 Mg6,0.0,38
2270,Sr1 Li1 Mg6,0.0,38
2271,Mg6 Ti1 Bi1,0.0,38
2272,Ce1 Mg6 Sn1,0.0,38
2273,Li1 Ce1 Mg6,0.0,38
2274,Ba2 Cu1 C1 N2 O2,0.0,123
2275,Mg6 Ti1 Sn1,0.0,38
2276,Mg6 Ti1 Sn1,0.0,38
2277,Mg6 Ni1 Sn1,0.0,38
2278,Mg6 Cu1 Bi1,0.0,38
2279,Mg6 Cu1 Sb1,0.0,38
2280,La1 Mg6 Cu1,0.0,38
2281,Mg6 Zr1 Sn1,0.0,38
2282,Na1 Y1 Mg6,0.0,38
2283,Y1 Mg6 Ga1,0.0,38
2284,Sr1 Mg6 Zn1,0.0,38
2285,Mg6 Zr1 Cu1,0.0,38
2286,Bi3 O2,0.0,139
2287,Mg6 Mn1 Ga1,0.0,38
2288,Li1 Mg6 Mn1,0.0,38
2289,Mg6 Mn1 Sn1,0.0,38
2290,Mg6 Mn1 Sn1,0.0,38
2291,Cu1 S1,0.0,225
2292,Ca1 Hf1 Mg6,0.0,38
2293,Ca1 Mg6 Cu1,0.0,38
2294,Mg15 Fe1,0.0,187
2295,Te4 Mo1 W2 S2,0.0,156
2296,Te4 Mo1 W2 S2,0.0,187
2297,K1 Na1 Mg14,0.0,38
2298,Mg14 Sn1 Mo1,0.0,38
2299,Mg14 Sb1 Mo1,0.0,187
2300,Mg14 Bi1 Mo1,0.0,187
2301,La1 Mg14 Ti1,0.0,187
2302,Mg14 Cd1 Mo1,0.0,38
2303,Hf1 Mg14 Cr1,0.0,38
2304,Sr1 Hf1 Mg14,0.0,187
2305,Ba1 Sr1 Mg14,0.0,187
2306,Na1 Mg14 Nb1,0.0,187
2307,Na1 Mg14 Cr1,0.0,38
2308,Ba1 Na1 Mg14,0.0,38
2309,Ba1 Na1 Mg14,0.0,187
2310,Ce1 Mg14 Ti1,0.0,187
2311,Ba1 La1 Mg14,0.0,187
2312,Ba1 Ce1 Mg14,0.0,187
2313,K1 Mg14 Ga1,0.0,187
2314,Na1 Mg14 Co1,0.0,187
2315,Na1 Mg14 Co1,0.0,38
2316,Mg14 Nb1 Cu1,0.0,38
2317,Te4 Mo1 W3 S4,0.0,156
2318,Te4 Mo1 W3 S4,0.030200000000000227,156
2319,Te4 Mo1 W3 S4,0.0,156
2320,Mg14 Cd1 Fe1,0.0,187
2321,Mg14 V1 Cu1,0.0,187
2322,Mg14 V1 Cu1,0.0,38
2323,Mg14 Zr1 Mo1,0.0,38
2324,Li1 Mg14 Fe1,0.0,187
2325,Mg14 Zr1 V1,0.0,187
2326,Y1 Mg14 Sb1,0.0,187
2327,Mg14 Fe1 Ni1,0.0,38
2328,K1 Mg14 Zn1,0.0,38
2329,Ba1 Mg14 Zn1,0.0,187
2330,Mg14 Zn1 Mo1,0.0,187
2331,Mg14 Zr1 Fe1,0.0,38
2332,Y1 Mg14 V1,0.0,187
2333,Sr1 Mg14 Mn1,0.0,38
2334,Hf1 Mg14 Mn1,0.0,38
2335,Y1 Mg14 Fe1,0.0,187
2336,Y1 Mg14 Co1,0.0,187
2337,Ca1 Mg14 Cr1,0.0,187
2338,Ba1 Ca1 Mg14,0.0,38
2339,Mg14 Mn1 Co1,0.0,187
2340,Mg14 Mn1 Fe1,0.0,38
2341,Ca1 Mg14 Fe1,0.0,38
2342,K1 Mg14 Al1,0.0,38
2343,Mg14 Nb1 Al1,0.0,187
2344,Mg14 Ti1 V1,0.0,38
2345,Hf1 Mg14 Ni1,0.0,38
2346,Mg14 Ti1 Ni1,0.0,38
2347,Te4 Mo1 W3 S4,0.03100000000000014,156
2348,Te4 Mo1 W3 S4,0.0,156
2349,Te4 Mo1 W3 S4,0.11129999999999995,156
2350,Li1 Mg6 Sb1 O8,0.22439999999999927,123
2351,Na1 Mg6 Al1 O8,3.5967000000000002,123
2352,Mg6 Cd1 Fe1 O8,1.5860000000000003,123
2353,Mg6 Cr1 Fe1 O8,0.0,123
2354,Na1 Hf1 Mg14 O15,0.0,25
2355,Mg14 V1 Sn1 O16,0.28990000000000116,123
2356,Mg14 Co1 Bi1 O16,0.4737,123
2357,Mg14 Ti1 Ni1 O16,0.0,47
2358,K1 Mg14 Co1 O16,0.0,123
2359,Na1 La1 Mg14 O16,2.9745,47
2360,Mg14 Cu1 Bi1 O16,0.07530000000000037,47
2361,Li1 Mg14 B1 O16,3.9897000000000005,47
2362,Mg14 Cu1 Sn1 O16,0.0,123
2363,Li1 Mg14 Si1 O16,0.0,123
2364,K1 Mg14 Fe1 O16,0.0,123
2365,Y1 Mg14 V1 O16,0.0,123
2366,Y1 Mg14 V1 O16,0.02059999999999995,47
2367,Y1 Mg14 Zn1 O16,0.0,123
2368,Y1 Mg14 Fe1 O16,0.2674000000000003,47
2369,Y1 Mg14 Mn1 O16,0.035199999999999676,123
2370,Y1 Mg14 Mn1 O16,0.041100000000000136,47
2371,K1 Mg14 Mn1 O16,2.2808,123
2372,Sr1 Ca1 Mg14 O16,3.1524,47
2373,K1 Mg14 Al1 O16,2.1513999999999998,47
2374,Mg30 V1 C1 O32,1.3147000000000002,123
2375,Mg30 V1 C1 O32,1.3305999999999996,123
2376,Ba1 Y1 Mg30 O32,0.34050000000000047,123
2377,Y1 Mg30 B1 O32,2.2521999999999993,123
2378,N1 Cr3 Sn1,0.0,221
2379,Mg30 Mn1 Si1 O32,2.0911,123
2380,Mg30 Al1 C1 O32,1.8867999999999991,123
2381,Mg30 Ga1 B1 O32,2.110099999999999,123
2382,Mg30 Cr1 C1 O32,1.2755999999999998,123
2383,Sr1 Mg30 Bi1 O32,0.0,123
2384,Cs1 Mg30 Ga1 O32,3.0721,123
2385,Ca3 Zn1,0.0,221
2386,Mg8 Bi4,0.0,8
2387,Ca4 Mg2,0.0,194
2388,Mg6 Bi6,0.0,5
2389,Ca6 Zn2,0.0,194
2390,Mg6 Bi6,0.0,8
2391,Ca6 Mg6,0.0,38
2392,Rb1 Mg30 Bi1 O32,2.0022,123
2393,Rb1 Mg30 Sb1 O32,1.5828999999999995,123
2394,Rb1 Hf1 Mg30 O31,0.6488999999999994,25
2395,Rb1 Hf1 Mg30 O31,0.0,25
2396,Mg30 Nb1 Si1 O32,0.9278000000000004,123
2397,Mg30 Nb1 Si1 O32,0.9305999999999992,123
2398,Ce1 Hf1 Mg30 O32,0.0015000000000000568,123
2399,Ce1 Hf1 Mg30 O32,0.12929999999999886,123
2400,Rb1 Ce1 Mg30 O32,0.0,123
2401,Mg30 Ti1 B1 O32,0.0,123
2402,Ca2 Mo4 O8,1.6191999999999998,160
2403,Ta2 Nb4 Zn4 O16,0.03289999999999971,1
2404,Zn4 Sn8 P8 O36,1.5387999999999997,62
2405,Mn8 P8 O32,0.27180000000000004,1
2406,Ti4 P8 O28,2.4134,14
2407,Ca6 Co12 O24,0.022299999999999986,1
2408,Zn4 Cu8 Bi8 O32,0.21879999999999988,14
2409,Ca6 Co12 O24,0.0,1
2410,Mg2 Ti6 P6 O26,0.0,11
2411,Ho2 Mo4 O12,0.9178000000000002,1
2412,Ba6 Ni6 F33,0.0403,145
2413,Bi4 P8 O28,0.31789999999999996,14
2414,Ba4 Ca4 Sn4 F28,0.0,14
2415,Ca4 Cu8 W8 O32,1.3795000000000002,14
2416,Zn6 Cr6 As8 O32,0.9683000000000002,14
2417,Al2 Co2 W4 O16,0.0,13
2418,Y2 Ni2 W4 O16,0.9306999999999999,13
2419,Ca4 Ag8 O16,0.026100000000000012,59
2420,Mg2 Co4 O8,0.3195999999999999,74
2421,Zn6 Cu6 Mo12 O42,0.23039999999999994,13
2422,Ca2 Fe4 O8,1.7351,74
2423,Mg2 Ag4 O8,0.37460000000000004,2
2424,Al2 Re2 W4 O16,0.0,13
2425,Ca2 Mo4 O8,1.3414000000000001,12
2426,Zn8 Bi8 Mo8 O40,1.5412,61
2427,Zn8 Co8 Bi8 O40,0.01849999999999996,61
2428,Mg4 Co6 O16,0.0,186
2429,Mg2 Ti2 Ge4 O12,1.5801999999999996,15
2430,Ca4 Fe6 O16,0.0,186
2431,Ca4 Ni6 O16,0.4121999999999999,186
2432,Ti2 Zn2 Ge4 O12,1.7124999999999995,15
2433,Mg2 V8 O12,0.0,63
2434,Mg1 Cu3 Mo4 O12,0.8121999999999998,2
2435,Mg4 Ni4 Sb4 P8 O36,0.0,11
2436,Zn4 Ni8 P8 O36,0.0,2
2437,Sr4 Fe2 Cu4 O14,0.0,9
2438,Mg4 Ge8 W4 O24,1.5448,14
2439,Ti4 Zn2 P4 O20,2.4001,43
2440,Ti4 Ni4 P8 O36,0.0,1
2441,V4 Zn4 Si16 O40,1.6839999999999997,130
2442,Zn4 Si16 Ni4 O40,0.001100000000000101,130
2443,Ca2 Co8 O12,0.26449999999999996,63
2444,Mg2 Ta2 Ti2 P6 O24,0.0049000000000001265,161
2445,La2 Fe2 Te2 O12,1.2935999999999996,7
2446,Zn4 Cu4 Bi4 O20,0.1976,14
2447,Mg2 Co4 P4 O20,0.05689999999999973,43
2448,Mg2 Mn4 P4 O20,0.0,43
2449,Cr4 P4 O20,0.5163,43
2450,Cr4 Bi4 O20,0.0,14
2451,Ca4 Bi4 W4 O20,1.7759,14
2452,Zn4 Ni4 Bi4 O20,0.24480000000000013,14
2453,Pr2 Bi4 O12,0.0,31
2454,Pr2 Ti4 Zn2 O12,0.0,31
2455,Ca2 Pr2 Sn4 O12,0.0,6
2456,Pr2 Mn4 Zn2 O12,0.0,31
2457,Pr2 Zn2 Ni4 O12,0.0,31
2458,Al4 Cr13 Si2 Sb2 O28,0.7113999999999994,1
2459,Ca6 Ti12 O24,0.0,8
2460,La2 Mg2 Cr4 O12,0.5433000000000003,7
2461,Y4 Fe12 O24,1.1700000000000004,12
2462,Mg2 Fe2 F8,3.5839999999999996,1
2463,Mg2 Mn4 S8,0.0,12
2464,Mg2 V4 O8,1.1545999999999994,12
2465,Ca2 Ti2 P8 O24,0.16740000000000066,1
2466,Zn2 Mo4 O12,0.7704,1
2467,Ba2 Tl2 Bi3 O10,0.0,1
2468,Ca4 Fe4 O8,1.3405,2
2469,Ba2 Y1 Tl1 Cr2 O7,0.0,123
2470,Ti2 Zn2 P2 O10,0.0,1
2471,Mg8 V10 Te6 O36,0.2610999999999999,5
2472,Mg2 Fe2 Si2 O10,0.0,1
2473,Sr4 Al2 Ga2 Co4 O14,0.7689999999999997,1
2474,Ti8 O12,0.0,63
2475,Sr4 Y2 Al2 V4 O14,0.3193999999999999,46
2476,Al1 Cu1 W2 O8,1.1739999999999995,1
2477,Ca4 Mo4 As4 O20,1.3548,1
2478,Al1 Fe1 W2 O8,2.3215,1
2479,Al1 Co1 W2 O8,1.8304,1
2480,Be12 Fe8 Si12 O48,1.4849,14
2481,Mg1 Bi4 O8,0.4612000000000003,8
2482,Zn2 Ni6 P6 O26,0.0,11
2483,Ca2 Ho2 Sn4 O12,0.0,31
2484,Mg4 Sn8 P8 O36,1.6000999999999994,62
2485,La2 Mn2 Zn2 Cr2 O12,0.8968000000000007,7
2486,Ti8 Zn4 P8 O36,0.0,2
2487,Sc1,0.0,139
2488,Na3 Cl1,0.0,123
2489,Zr2 Ti1 Al1,0.0,225
2490,Mg6 Si6,0.0,11
2491,La4 Sm4 Co8 O24,0.5005999999999995,123
2492,La7 Sm1 Ti1 V7 O24,0.0,160
2493,La6 Sm2 V4 Cr4 O24,0.0,25
2494,K1 Na7 V6 Mo2 O24,0.0,38
2495,La7 Sm1 Ti3 V5 O24,0.0,8
2496,La6 Sm2 V3 Cr5 O24,0.5922999999999989,6
2497,La7 Sm1 Mn1 Fe7 O24,0.0,160
2498,La6 Sm2 Cr4 Fe4 O24,0.8243999999999998,25
2499,K2 C2 N2,5.0381,9
2500,Na2 Ti1 O3,1.3796,71
2501,Al2 Fe1 S4,0.5640000000000001,166
2502,Mn1 Ga2 S4,0.0,160
2503,Fe8 C2,0.0,11
2504,Sn4 O4,1.4917999999999996,36
2505,Ba3 Ca1 O4,2.111,221
2506,Ce2 Fe2 S2 O3,0.0,139
2507,Si4 Pd4,0.0,140
2508,Th2 Ta2 N6,0.0,63
2509,Cr4 Te4,0.0,62
2510,Cu2 C2 O6,0.03980000000000006,4
2511,Li12 Mn16 O32,0.19469999999999965,1
2512,Ce4 Se8,0.8490999999999997,92
2513,La1 Co5 H4,0.0,35
2514,Li2 Ho2 Sn4,0.0,63
2515,Ca1 Zn3 Se4,1.3082000000000003,215
2516,Nd2 B4 C4,0.0,131
2517,Al1 Cr1 Ni2,0.0,225
2518,Sm4 Sc4 O10,0.1966000000000001,9
2519,Mg4 Sn2,0.0,187
2520,Sr2 Mg10,0.0,8
2521,Mg6 Ti6,0.0,8
2522,Mg10 Ti2,0.0,38
2523,Y4 Mg2,0.0,189
2524,Mg6 Ti8,0.0,176
2525,Y2 Mg4,0.0,194
2526,Y4 Mg8,0.0,8
2527,Mg3 Zn3,0.0,156
2528,Y6 Mg6,0.0,38
2529,Mg4 Zr12,0.0,225
2530,Mg10 Ti2,0.0,8
2531,Sr4 Mg8,0.0,12
2532,Y4 Mg8,0.0,63
2533,Y6 Mg6,0.0,5
2534,Ce10 Mg2,0.0,38
2535,Ce2 Mg6,0.0,44
2536,Pr2 B4 C4,0.0,131
2537,Fe1 Bi4 S7,0.2754000000000003,12
2538,Ba2 Cu4 Ag4 O8,0.0,125
2539,C71,0.033899999999999986,8
2540,Cr16 Fe16 Co16 Ni16,0.0,1
2541,Fe1 Cu1 S2,0.0,160
2542,H48 C84,2.2616,4
2543,Cs1 Mg30 Ti1 O32,0.4028999999999998,123
2544,Mg3 Cd1 O4,1.3725000000000005,221
2545,Li1 Mg6 Ni1,0.0,38
2546,La5 Sm3 V1 Cr7 O24,1.4174000000000007,8
2547,La7 Sm1 Ti2 V6 O24,0.0,38
2548,Mg4 Si8,0.0,14
2549,Li9 Mn2 Co5 O16,0.0,6
2550,Li9 Mn2 Co5 O16,0.0,6
2551,Li9 Mn2 Co5 O16,0.0,6
2552,Li9 Mn2 Co5 O16,0.0,8
2553,Li9 Mn2 Co5 O16,0.0,8
2554,Li9 Mn2 Co5 O16,0.0,8
2555,Li9 Mn2 Co5 O16,0.0,8
2556,Li9 Mn2 Co5 O16,0.0,10
2557,Li9 Mn2 Co5 O16,0.0,10
2558,Li9 Mn2 Co5 O16,0.0,10
2559,Tl8 Cu38 Se24,0.14170000000000016,40
2560,Li3 Bi3 P6 O24,0.0,1
2561,Na1 Co1 O2,0.9607000000000001,164
2562,Ti3 Nb1 Ni2 P6 O24,0.09359999999999946,146
2563,Pb4 O8,0.0,62
2564,Sr8 Al4,0.0,15
2565,Rb8 As1 O3,0.0,221
2566,Ga8 Au4,0.0,14
2567,Fe1 Mo6 S8,0.0,148
2568,Fe1 Cu1 As2 Pb1 O10,0.01750000000000007,2
2569,Gd4 Co3 B6,0.0,166
2570,Cs8 O6,0.0,220
2571,Re10 Si6,0.0,140
2572,Li2 B18,0.0,185
2573,K4 Mo2 O4 F10,0.012799999999999923,5
2574,Zn4 Si2 H2 O10,0.1074,44
2575,K2 Os2 Br8 N2 O4,0.0,36
2576,La10 Mn2 Pb6,0.0,193
2577,Rb2 Sc1 Au1 F6,1.6882,225
2578,Rb2 In1 Au1 F6,0.46809999999999996,225
2579,Rb2 Li1 Ta1 Br6,0.0,225
2580,K2 Rb1 Pr1 Cl6,4.3509,225
2581,K2 Li1 Mo1 I6,0.9740000000000002,225
2582,K3 Nb1 F6,0.0,225
2583,K2 Tl1 Ga1 Br6,1.3834,225
2584,Na2 Ag1 Au1 Br6,0.0,225
2585,K2 Na1 Tl1 I6,0.07489999999999997,225
2586,Na2 Tl1 Cu1 F6,0.0,225
2587,K2 Ti1 Tl1 F6,0.0,225
2588,K2 Rb1 Ga1 Cl6,3.433,225
2589,K2 Rb1 Al1 I6,1.9161000000000001,225
2590,K2 Rb1 Al1 Br6,3.2213000000000003,225
2591,Cs1 Rb2 Ga1 Cl6,3.5534,225
2592,Na3 Er1 Cl6,3.8883,225
2593,Cs2 Nb1 Tl1 F6,0.0,225
2594,K2 Tm1 Au1 Cl6,1.9531999999999998,225
2595,K2 Er1 Au1 Cl6,1.9878000000000002,225
2596,K2 Ga1 Au1 F6,0.6703,225
2597,Cs2 Li1 Ta1 I6,0.0,225
2598,Cs2 K1 Ta1 I6,0.0,225
2599,Cs2 In1 As1 F6,2.1061,225
2600,Tb1 Na3 Cl6,3.8615000000000004,225
2601,Rb2 Ce1 Au1 Cl6,0.15470000000000006,225
2602,Na2 Li1 Sm1 Cl6,3.9002999999999997,225
2603,Rb2 Y1 Hg1 F6,0.0,225
2604,Na2 Li1 Gd1 Cl6,2.8701000000000003,225
2605,Rb2 Y1 Hg1 Cl6,0.0,225
2606,Sn2 F8,2.4568000000000003,1
2607,Th1,0.0,229
2608,Ba4 Cu3 Br1 O6,0.0,229
2609,Bi2 B2 O2 F8,3.2430000000000003,39
2610,Ba2 Zn3 P2 O2,0.40769999999999973,139
2611,Li1 Cu1 O1 F1,0.0,99
2612,Ge1 Te1,0.9106999999999998,160
2613,Sr2 Al14 Tl10 Si10 O48,1.7463000000000002,1
2614,Na2 Mg2 Ti6 O14 F2,2.5936999999999997,26
2615,Nb20 N17,0.0,12
2616,Na6 Ga5 Si7 H15 O32,1.4106999999999998,1
2617,Li6 Mn2 Co2 O10,0.036799999999999944,2
2618,Li6 Mn2 Co2 O10,0.1402000000000001,2
2619,Li6 Mn2 Co2 O10,0.056400000000000006,2
2620,Li6 Mn2 Co2 O10,0.11660000000000004,2
2621,Li6 Mn2 Co2 O10,0.016600000000000392,2
2622,Li8 Mn2 Co4 O14,0.13090000000000002,2
2623,Li8 Mn2 Co4 O14,0.0,8
2624,Li8 Mn2 Co4 O14,0.1528999999999998,2
2625,Li8 Mn2 Co4 O14,0.07089999999999996,2
2626,Li8 Mn2 Co4 O14,0.0,12
2627,Li7 Mn2 Co3 O12,0.11990000000000034,2
2628,Li7 Mn2 Co3 O12,0.0,2
2629,Li7 Mn2 Co3 O12,0.0,2
2630,Li7 Mn2 Co3 O12,0.0,10
2631,Li7 Mn2 Co3 O12,0.0895999999999999,2
2632,Li7 Mn2 Co3 O12,0.0,2
2633,Li7 Mn2 Co3 O12,0.0,1
2634,Li7 Mn2 Co3 O12,0.012199999999999989,1
2635,Li7 Mn2 Co3 O12,0.0,8
2636,Li9 Mn2 Co5 O16,0.0,2
2637,Li9 Mn2 Co5 O16,0.0,2
2638,Li9 Mn2 Co5 O16,0.0,2
2639,Li9 Mn2 Co5 O16,0.0,1
2640,Li9 Mn2 Co5 O16,0.0,1
2641,Li9 Mn2 Co5 O16,0.0,1
2642,Li9 Mn2 Co5 O16,0.0,1
2643,Mn4 Co2 O12,0.0,64
2644,Li8 Ti4 Co14 O36,0.0,1
2645,Li2 Nb1 Co3 O8,0.7331000000000001,166
2646,Li2 Mg1 Co3 O8,0.0343,12
2647,Li4 Fe2 Co2 O8,0.7379000000000002,15
2648,Fe10 O16 F4,0.0,1
2649,Th12 Mn46 H32,0.0,136
2650,Ti2 Co2 O6,2.1598,2
2651,Rb1 Zr1 Cu3 Se4,1.1619,215
2652,Rb1 V1 Cu3 Se4,0.0,215
2653,Rb1 Hf1 Cu3 Se4,1.1573999999999998,215
2654,Rb4 Pd2,0.8208000000000001,12
2655,Pb12 Cl4 O12,0.7271000000000001,26
2656,Pb14 Cl4 O16,1.2348000000000003,4
2657,Mg1 Cu3 Ni1 Se4,0.0,215
2658,Mg2 W2 O8,3.2797,13
2659,Mg20 Si6 O36,0.07690000000000019,31
2660,K4 Co2 S4 O20,0.6687000000000001,14
2661,Dy10 Ge6 B2,0.0,193
2662,Cd1 Co1 Cu3 Se4,0.0,215
2663,Ba4 I8 O4,1.7736,62
2664,Gd4 S2 Cl8,1.2194,2
2665,Ba4 O16,0.08609999999999995,14
2666,Cu8 W4 O16,0.9457999999999998,2
2667,K24 V8 O40,0.6170000000000001,61
2668,Ca1 Tb3,0.0,221
2669,Cd1 Bi3,0.0,221
2670,Cd3 Ge1,0.0,139
2671,Ce3 Hf1,0.0,221
2672,Cs2 U2 O5,0.0,123
2673,Ga1 Bi3,0.0,221
2674,Eu2 Co2 O5,0.0,123
2675,Fe3 Cu1,0.0,139
2676,Gd1 Zr1,0.0,187
2677,Ir1 Pd3,0.0,139
2678,K3 Ba1,0.0,221
2679,K3 Ba1,0.0,225
2680,La1 Zn1 O3,0.0,221
2681,La3 Ag1,0.0,221
2682,La1 Nd1 Ir2,0.0,225
2683,Li1 Lu2 Re1,0.0,225
2684,Li1 Eu3,0.0,139
2685,Mg16 Al12 O1,0.0,160
2686,Mg16 Al12 I1,0.0,217
2687,Mg3 As3,0.0,5
2688,Mn6 Sb2,0.0,194
2689,Na1 Eu3,0.0,139
2690,Nd3 Zn1,0.0,139
2691,Pr1 Nd1 Ir2,0.0,225
2692,Pm3 Pd1,0.0,139
2693,Pr3 Zn1,0.0,139
2694,Sc3 Nb1,0.0,139
2695,Sr2 Cu1 Pt1,0.0,225
2696,Sr1 Sb1 O3,0.0,221
2697,Sr1 Pr3,0.0,221
2698,Sr1 Re1 O3,0.0,221
2699,Ti6 Te2,0.0,194
2700,Tl3 Ge1,0.0,139
2701,Yb1 Cu1 O3,0.0,221
2702,Ti6 Ni2,0.0,194
2703,Yb1 Ce1 Mg2,0.0,225
2704,Yb3 Ag1,0.0,221
2705,Yb6 Er2,0.0,194
2706,Zr2 Co6,0.0,194
2707,Er6 Mn6 Ga6,0.0,46
2708,Fe12 N4,0.0,62
2709,Nb12 Au8,0.0,213
2710,K4 Mo2 O4 F10,0.0,12
2711,Ba4 Br8 O4,2.0392,62
2712,Zn4 P2 O10,0.01660000000000006,2
2713,Hg4 P4 O16,0.0,2
2714,La4 C4 O16,0.0,62
2715,Na2 Cu3 Bi2 As2 O13,0.0,5
2716,Sm2 Mn3 Cu9 P7,0.0,6
2717,La6 Co4 S14,0.0,173
2718,Dy4 C4 O16,0.7144999999999999,19
2719,Sr3 Nb1 Ga3 Si2 O14,2.9336,5
2720,Cu14 Te8,0.0,8
2721,Ba6 Fe6 O18,0.0,63
2722,Be8 Si4 O18,0.21629999999999994,36
2723,Co28,0.0,136
2724,U2 Hg5 As2 O18,0.0,2
2725,Fe10 H2 O16,1.6894999999999998,36
2726,Nd4 W4 O20,0.6106,14
2727,Zr12 Fe12 C4,0.0,227
2728,P4 N12 O4 F8,4.8799,2
2729,Sn4 P4 N4 O16,0.3814000000000002,14
2730,Mg2 Al4 P4 O20,0.10400000000000009,14
2731,Nd2 B8 Cl2 O16,0.0,9
2732,Mn6 Ni16 Ge7,0.0,225
2733,Sn4 Hg8 S8 Br8,2.2055,14
2734,I6 N2 O18,1.7018000000000002,2
2735,Fe12 H84 C48 N6 O72,1.6187999999999998,167