Index,Composition,bandgap,spgN
15961,V6 O4 F12,1.2807,2
15962,Mn12 O14 F10,0.0,1
15963,Mn12 O14 F10,0.1501999999999999,7
15964,Li4 V4 O4 F12,2.0851,14
15965,Mn12 O14 F10,0.0,1
15966,Li7 Co2 O6,0.8955000000000001,1
15967,Na10 W2 O10,0.0,15
15968,Fe8 O10 F6,0.0,1
15969,Li6 Fe1 O5 F1,0.0,1
15970,Li4 Mn4 O4 F8,1.2316,15
15971,Li8 V4 C8 O24,2.4831000000000003,2
15972,Li4 Mn4 O2 F12,1.2127000000000001,2
15973,Li2 Sn8 P6 O24,2.647,2
15974,Li2 Sn6 P12 O40,0.2083999999999997,20
15975,Li2 V4 O4 F6,1.7317000000000002,1
15976,Li9 Fe4 B8 O24,0.0030000000000000027,1
15977,Li12 Ti15 V3 O36,0.0,2
15978,Li8 V8 O8 F16,1.3648999999999998,7
15979,Li1 Mn3 O4 F2,0.3163,1
15980,Li6 Cr2 Si2 O10,3.3511999999999995,2
15981,Li1 Mn5 O3 F5,0.8525,160
15982,Li8 Co8 P8 O32,2.7054,14
15983,Li16 V8 F32,2.6512000000000002,33
15984,Li2 V2 F8,3.0345,88
15985,Li4 Co3 O2 F6,2.5015,2
15986,Li10 V2 Cr6 O16,1.2528000000000006,186
15987,K8 Li10 Mn4 O16,0.5408,1
15988,Li5 V1 O3 F2,1.5739999999999998,1
15989,Li2 Cr3 Cu1 O8,0.0,160
15990,Li2 Cr2 Si6 O16,2.5459,2
15991,Li3 V1 O2 F2,1.1774999999999998,65
15992,Li2 V2 F6,2.2312999999999996,11
15993,Li5 Ni1 O1 F5,1.7733,156
15994,Li4 Fe2 P4 O14,3.6667999999999994,113
15995,Fe8 O10 F6,0.09210000000000007,1
15996,Li4 Ni4 P8 O28,0.09389999999999987,1
15997,Ba8 Ca8 I32,3.4196000000000004,14
15998,Li8 Cu16 S12,0.7526000000000002,62
15999,Li12 V2 Si4 O16,1.7099000000000002,7
16000,Li12 Cr12 Co8 O48,0.7384999999999999,14
16001,Li4 Fe4 Si8 O22,3.5044,2
16002,Sb9 P1 O25,0.0,82
16003,Li12 Si12 Ni6 O36,3.3892,31
16004,Li4 Cr2 C4 O12,2.4177,14
16005,Li8 Mn4 O8 F4,1.0404,9
16006,Li2 Cr4 P4 O16,0.0,7
16007,Li4 Fe2 Si6 O16,2.6144,4
16008,Li3 V2 C4 O12,0.9352,1
16009,Li4 Mn2 Cr3 Fe3 O16,0.0,1
16010,Li4 Ti1 Mn3 P4 O16,0.0,6
16011,Li4 Ti2 Cr4 O12,2.2359999999999998,64
16012,Li6 Si3 Ni3 O12,3.0798000000000005,1
16013,Li4 Mn4 Si4 O14,2.6963,1
16014,Li12 V6 Si12 O36,1.8921999999999999,31
16015,Li6 Cr8 P12 O48,0.0,24
16016,Li1 V1 P2 O8,0.6470999999999998,8
16017,Li4 Mn2 Co3 Te3 O16,0.7525999999999997,1
16018,Li3 Mn3 Fe2 O10,0.9265000000000001,2
16019,Li3 Ti3 Cr3 S3 O24,0.9273,1
16020,Li12 Ni4 P4 C4 O28,3.2615,14
16021,Li12 Cr4 P4 C4 O28,2.6531,14
16022,Li8 Ti2 V8 Cr8 O36,1.318,26
16023,Li4 Ni4 P8 O28,0.042200000000000015,7
16024,Li3 Ti1 Co3 O8,1.7178999999999998,166
16025,Y2 H2 O4,4.2211,194
16026,Bi4 B8 O20,0.0,15
16027,Li4 Mn8 O4 F20,0.0,7
16028,Dy8 Si4 O20,4.163,62
16029,In8 Bi8 O28,0.33340000000000014,4
16030,Li8 Bi4 O12,0.0,52
16031,Ba8 Y4 Cl28,4.5625,14
16032,Li4 Bi12 O20,1.9093999999999998,14
16033,Bi8 B6 O24,0.0,220
16034,Y4 Se6 O24,3.0802,15
16035,Dy4 Se6 O24,3.0307000000000004,15
16036,Ca5 Ta4 O15,2.9774,164
16037,Ag4 H32 O20,0.29179999999999995,19
16038,Ba8 Ta4 O18,3.5999,165
16039,Li8 Ti8 V10 O36,0.9893000000000001,55
16040,Li2 Ti1 V3 O8,0.7328999999999999,12
16041,Li6 Mn3 P6 W1 O24,0.6901000000000002,1
16042,Ni8 P4 O18,2.2331999999999996,2
16043,Rb1 Li7 Ni2 O6,2.4625,1
16044,Li4 Ni2 B2 O8,1.2976999999999999,20
16045,Mn4 In2 O10,0.0,63
16046,Mg4 Co4 O12,0.0,62
16047,Ni5 Te2 O12,0.20219999999999994,5
16048,Li8 Mn2 O6,1.2564000000000002,1
16049,Li4 Al2 V2 O8,2.3742,7
16050,Mn3 Bi1 O8,0.0,166
16051,Li8 Al4 Ni4 O16,1.8098999999999998,33
16052,Li12 Ti4 O14,2.4848,102
16053,La4 Ho4 O12,4.024699999999999,14
16054,Mn8 P8 O32,0.5388,61
16055,Eu3 W1 O6,0.0,225
16056,Li2 Cr1 O3,0.0,65
16057,Zr4 Cr4 O12,1.3886000000000003,62
16058,Na6 Sn2 As2 C2 O14,2.4229000000000003,11
16059,Li4 Mn2 Al4 O12,1.9548999999999994,64
16060,Na6 Si2 B2 Sb2 O14,0.0,11
16061,La8 Cd8 O20,1.3022000000000005,62
16062,Li10 Fe3 Sb7 O24,1.0320999999999998,1
16063,Li4 Nb5 V3 O16,0.13159999999999972,1
16064,Na4 Si2 Sb2 C2 O14,0.0,11
16065,Na4 Si2 B2 Sb2 O14,2.1623,11
16066,Li12 Fe4 P2 C8 O32,1.305,15
16067,Li4 Mn5 P6 W1 O24,2.4972,1
16068,Fe3 Cu3 P6 O24,0.0,146
16069,Mn3 Fe2 P6 W1 O24,0.0,146
16070,Li4 Cr1 Co5 O12,0.14769999999999994,1
16071,Li7 Fe3 W2 O16,0.0,8
16072,Li3 Ti2 Mn1 O6,0.0,12
16073,Li4 Mn5 Co1 O12,0.8122000000000003,1
16074,Lu8 Te4 O24,1.4376999999999995,15
16075,Li3 Cu5 O8,0.0,166
16076,Ca4 Pb4 I24,1.7803000000000002,43
16077,Sb8 O20,0.9887000000000001,14
16078,Cr4 W6 O24,3.0068,148
16079,Eu4 Al8 O18,0.0,55
16080,Li4 Cu2 C2 S2 O14,0.12809999999999988,11
16081,Sr8 La4 I28,2.6012,14
16082,Ba8 La8 I40,2.5999,14
16083,Ba10 La6 I38,2.4886,2
16084,Nb1 Ni5 P6 O24,0.0,146
16085,Li4 Cr3 Fe5 O16,0.0,1
16086,Li4 Co5 Ni3 O16,0.0,1
16087,Li4 Mn2 B2 As2 O14,0.7690999999999999,11
16088,K2 Si2 P2 C2 O14,5.168,4
16089,As20 Pb12 S40,0.4681000000000002,4
16090,Mn3 V2 Cr3 O16,0.7056,1
16091,Li4 Cr16 O48,0.0,88
16092,Li6 Cr3 Sb3 O16,0.5375999999999999,8
16093,Li2 Cr1 Ni1 O4,0.0,119
16094,Li3 Ti3 Cr1 O8,0.0,166
16095,Ti1 Ni5 P6 O24,0.0,146
16096,Li4 V4 Sn4 O16,0.0,3
16097,Li4 Cu2 P6 H16 O26,1.6309000000000005,2
16098,Na24 Co4 O16,1.0506999999999997,217
16099,Li4 Mn3 F10,3.4539,2
16100,Li12 Cu4 S12,0.6119999999999999,136
16101,V3 Fe1 O8,1.2565,1
16102,Li2 Nb2 Cr2 O8,0.0,74
16103,Sc8 P12 O48,0.0,14
16104,Li4 Cr2 Te1 W1 O12,0.6551,1
16105,Li4 Nb3 Co3 Te2 O16,0.7834999999999996,8
16106,Sr2 Nb6 N2 O14,1.5305999999999997,1
16107,Y4 Nb8 N4 O20,2.5296999999999996,1
16108,Mn3 Fe3 Te2 O16,0.3250000000000002,1
16109,Li4 Cr1 Bi1 Te2 O12,0.48770000000000024,1
16110,Li6 V4 O8 F8,1.2909,1
16111,Li4 Fe6 F16,3.1268,14
16112,Ti8 O12,0.0,147
16113,Na10 Bi4 As2 C8 O32,0.9745999999999997,43
16114,Mn10 Se16 O48,0.6155,2
16115,Li2 Fe2 F8,3.3661000000000003,13
16116,Mn2 Ni3 Sb1 P6 O24,0.0,146
16117,Li2 Fe1 W1 O6,0.0,1
16118,Na6 O3,1.5089000000000001,143
16119,Fe7 Te1 P12 O48,0.004299999999999998,1
16120,Li4 Mn8 P4 O20,1.8299999999999996,33
16121,Na8 Co4 O12,0.7799,15
16122,Li2 V3 Co1 O8,0.8416000000000001,8
16123,Li8 Mn1 Ni7 P12 O48,0.0,1
16124,Y12 Sb12 O42,1.9164999999999992,1
16125,Tb4 Ce4 O16,0.0,1
16126,Na36 Cu8 O28,0.0,198
16127,Ba12 Y8 F48,6.4213000000000005,14
16128,Li4 Mn3 Cr3 Co2 O16,0.4669000000000003,1
16129,Li4 Mn2 F8,3.6791,5
16130,Na18 Ti6 O21,2.6342,12
16131,Na12 Bi4 P2 C8 O32,0.0,203
16132,Li4 V2 P2 H2 O10,2.6783999999999994,2
16133,Li2 V12 O14 F10,1.1931999999999996,3
16134,Fe6 O5 F7,1.5766,1
16135,Mn12 O14 F10,0.0,1
16136,Ce4 I8 O24,0.6031000000000004,14
16137,Na1 V5 O8,1.3228,12
16138,Na12 Cu2 O8,0.0,9
16139,Li18 Sn6 P16 O58,0.0,15
16140,Fe3 O3 F3,1.7991000000000001,146
16141,Na12 Sb20 O56,1.1243999999999996,55
16142,Li8 Mn4 B8 O24,0.6614000000000002,14
16143,Li4 Cr2 P2 H2 O10,2.8251,2
16144,Li2 V12 O14 F10,1.2351999999999999,7
16145,Na40 Cu8 O32,0.0,61
16146,Na8 Ni4 P2 C8 O32,0.0,70
16147,Mn12 O10 F14,0.07339999999999991,1
16148,Fe6 O8 F4,0.0,12
16149,Fe6 O8 F4,0.0,2
16150,Mn12 O14 F10,0.0,1
16151,Li8 Fe2 O6 F2,2.7852,36
16152,Hf12 N12 O6,1.1956999999999995,6
16153,Gd8 Zr8 O28,3.1542999999999997,14
16154,La6 Al6 O18,4.270499999999999,1
16155,Li11 V6 O5 F19,0.0,1
16156,Mn12 O14 F10,0.0,1
16157,Co4 Te1 O8,0.5164,12
16158,Li3 Mn1 Cu3 O8,0.044399999999999995,166
16159,Fe10 O15 F5,0.0,6
16160,Li2 Ti1 Cr3 O8,0.0,2
16161,Li4 Fe4 F12,3.3554,62
16162,Li4 Mn8 Cr8 O32,0.6072,1
16163,Mn3 Cr3 P6 O24,0.0,146
16164,Na8 V4 O12,1.8482000000000003,43
16165,Na10 Cr2 O8,0.6029,59
16166,Fe6 O2 F10,0.0,2
16167,Fe4 O2 F6,1.2831,63
16168,Li18 Mn9 P12 O48,3.3653000000000004,1
16169,Fe8 O10 F6,0.0,1
16170,Li4 Mn8 B8 O24,0.2138,1
16171,Li2 Mn2 P8 O24,1.0853,15
16172,Fe8 O12 F4,0.0,64
16173,Li2 V3 Cr1 O8,0.6137000000000001,2
16174,Li4 Cr4 P4 H8 O20,2.6737,14
16175,Fe6 O8 F4,0.0,2
16176,Mn8 O8 F8,0.12150000000000016,1
16177,Cu18 As6,0.0,165
16178,V3 Cr1 O10,0.0,115
16179,Li4 Fe2 O2 F6,1.9779000000000002,8
16180,Li24 V12 F60,2.0328,14
16181,Fe10 O9 F11,0.9232999999999998,1
16182,Li8 Fe8 P16 O56,1.4159000000000002,1
16183,Mn12 O10 F14,0.472,1
16184,Fe10 O9 F11,0.7122999999999999,5
16185,Na2 Ti9 O19,1.7631999999999999,8
16186,Fe8 O6 F10,0.4542999999999997,2
16187,Ni5 Te1 P6 O24,0.0,146
16188,Li2 V2 P2 H2 O10,2.2039,2
16189,Mn12 O10 F14,0.0,1
16190,Li8 Mn8 P16 O56,0.11709999999999998,1
16191,Li16 Fe16 O32,1.8933,61
16192,Fe8 O10 F6,0.0,8
16193,Li4 Mn8 B8 O24,0.0,1
16194,Li6 Ti1 Ni3 P6 O24,0.0,1
16195,Li3 Mn5 Cr2 O12,0.05410000000000004,5
16196,Mn12 O10 F14,0.0,1
16197,Mn3 Nb2 Co3 O16,0.0,1
16198,Li4 Mn2 P4 O14,3.9831,113
16199,Li4 Mn5 Sn1 P6 O24,2.0280000000000005,1
16200,Li3 V4 O11 F1,1.3797000000000001,1
16201,Li7 Co2 O6,1.1312000000000002,1
16202,Li6 Fe6 Si6 O24,1.7104,148
16203,Li2 Cu2 S2,0.7925999999999993,31
16204,Li10 Fe2 P8 O28,2.0377,2
16205,Li4 Ni12 P12 O44,3.5520999999999994,14
16206,Li12 V4 P4 C4 O28,2.5652,1
16207,Li12 Ni4 P4 C4 O28,3.2777000000000003,14
16208,Eu2 Al2 O5,0.0,123
16209,Li4 Nb2 P10 O30,0.3190000000000004,11
16210,Li3 Cr3 Fe1 O8,0.0,2
16211,Li12 Co12 P12 O48,2.3316999999999997,14
16212,Li3 Mn3 Fe1 O8,0.18990000000000018,2
16213,Li4 Ni4 P16 O48,0.002600000000000005,20
16214,Yb2 Li1 Pd1,0.0,225
16215,Mg1 Sc2 Ru1,0.0,225
16216,Li1 La2 Ru1,0.0,225
16217,Li4 Ni4 P16 O48,0.0,14
16218,La18 Ni12 O41,0.24139999999999961,8
16219,Zn1 In3,0.0,139
16220,Rb1 Mg16 Al12,0.0,160
16221,Pr1 Bi1 Pd2,0.0,225
16222,Na1 Ru1 O3,0.0,221
16223,Sr1 Ac3,0.0,139
16224,Ho3 Zr1,0.0,221
16225,Pb1 Au3,0.0,225
16226,Na3 Pt1,0.0,139
16227,Sn1 H22 C6 N2 Cl4,4.292400000000001,2
16228,Dy3 Ga1,0.0,221
16229,Co6 O4 F8,0.0,58
16230,Li2 Fe16 O24,1.0889999999999995,1
16231,Li9 Fe6 Ni15 O36,0.0,1
16232,Ca1 La2 Mn2 Fe2 O12,0.0,1
16233,V4 O8,0.6766000000000001,12
16234,Ca3 V12 Cu6 O42,0.5805,3
16235,Co12 O24,0.4857,1
16236,Zn4 Fe2 Sb2 O12,1.7726000000000002,11
16237,Cu3 Ge4 O12,0.0,204
16238,Zn2 Cu2 F8,0.8534999999999999,1
16239,Ca4 Ni2 N4,0.0,1
16240,Ca2 Sb2 F10,3.0615,1
16241,Zn2 Bi2 F10,3.8792,1
16242,V4 Zn4 O12,1.0941,62
16243,Zn4 Bi4 O12,0.9831000000000003,14
16244,Ta2 Zn4 Mo2 O12,2.0836,11
16245,Si4 Mo2 O12,1.7126000000000001,15
16246,Zn8 Co16 O32,0.0,8
16247,Ce8 Sn4 Se16,0.0,62
16248,Ru1 N1,0.0,216
16249,Ba3 As1 N1,0.0,221
16250,Na1 Mg7,0.0,187
16251,Zr2 Ir2,0.0,59
16252,Cr1 C1,0.0,187
16253,Ga1 Co2 Ni1,0.0,139
16254,Cr1 Fe2 Si1,0.0,225
16255,Lu2 Se4,0.0,129
16256,Nd2 Sb2 Te2,0.0,129
16257,Mg6 Ga1 Sn1,0.0,38
16258,Cs1 P1 Pb1 I2 F6,2.0597,123
16259,Mg6 Zr1 Cd1,0.0,38
16260,Mg2 Cu2 O4,0.0,141
16261,Cr2 Fe1 Te4,0.0,12
16262,Te2 Mo2 W1 Se2 S2,0.2633000000000001,156
16263,Li1 Mg14 Ti1,0.0,38
16264,Li1 Mg14 Si1,0.0,187
16265,Mg14 Cu1 Sb1,0.0,187
16266,Te2 Mo3 W1 Se4 S2,0.0,156
16267,Te2 Mo3 W1 Se4 S2,0.0,156
16268,Te2 Mo2 W2 Se4 S2,0.0,156
16269,Te2 Mo3 W1 Se4 S2,0.0,156
16270,Te2 Mo2 W2 Se4 S2,0.0,156
16271,Te2 Mo2 W2 Se4 S2,0.0,156
16272,Te2 Mo1 W3 Se4 S2,0.0,156
16273,Te4 Mo4 S4,0.0,156
16274,Te2 Mo3 W1 Se4 S2,0.0,156
16275,Te2 Mo2 W2 Se4 S2,0.5397000000000003,156
16276,Te2 Mo2 W2 Se4 S2,0.0,156
16277,Li1 Mg14 Co1,0.0,38
16278,Te2 Mo3 W1 Se4 S2,0.0,156
16279,Y1 Hf1 Mg14,0.0,38
16280,La1 Y1 Mg14,0.0,38
16281,Mg14 Zn1 Ni1,0.0,38
16282,Mg14 Mn1 Ga1,0.0,187
16283,Mg14 Mn1 Cd1,0.0,38
16284,Mg14 Mn1 Ga1,0.0,38
16285,Ce1 Y1 Mg14,0.0,187
16286,Mg14 Mn1 Sn1,0.0,187
16287,Ca1 Mg14 Zr1,0.0,187
16288,Na1 Ca1 Mg14,0.0,38
16289,Te2 Mo1 W3 Se2 S4,0.0,156
16290,Te2 Mo2 W2 Se4 S2,0.0,156
16291,Te4 W4 Se2 S2,0.0,156
16292,Te2 Mo1 W3 Se4 S2,0.0,156
16293,Te4 W4 Se2 S2,0.0,156
16294,Te2 Mo1 W3 Se2 S4,0.0,156
16295,Na2 Zn2 N2,0.0,186
16296,Te2 Mo2 W2 Se4 S2,0.0,156
16297,Te4 Mo4 S4,0.0,164
16298,Te2 Mo1 W3 Se2 S4,0.0,156
16299,Te2 Mo2 W2 Se4 S2,0.22560000000000002,156
16300,Te2 Mo1 W3 Se2 S4,0.1358999999999999,156
16301,Mg6 Zn1 Cd1 O8,1.2936000000000005,123
16302,Mg6 Zn1 Fe1 O8,1.3261000000000003,123
16303,Ca1 Mg6 Zn1 O8,2.6121,123
16304,Mg14 Cr1 Cd1 O16,0.0,123
16305,Na1 Mg14 W1 O16,2.1175999999999995,47
16306,Ba1 Mg30 Ni1 O32,3.9609000000000005,123
16307,N1 Cr3 Pd1,0.0,221
16308,Y1 Mg30 Cd1 O32,0.0,123
16309,Ba1 Mg30 Fe1 O32,2.5107,123
16310,Mg30 Nb1 Fe1 O32,0.5569000000000006,123
16311,Y1 Mg30 Ti1 O32,0.0,123
16312,Rb1 Mg30 Al1 O32,4.207699999999999,123
16313,Mg2 Cd2,0.0,164
16314,Ca3 Mg1,0.0,25
16315,Mg4 Cd2,0.0,164
16316,Ca6 Mg6,0.0,38
16317,K1 Mg30 W1 O32,3.208500000000001,123
16318,Ca2 Cr4 O8,2.2575999999999996,160
16319,Ca6 Ni12 O24,0.0,1
16320,V8 Zn4 P8 O32,1.3584999999999994,1
16321,Zn2 Cr6 P6 O26,1.2612999999999999,11
16322,Zn2 Cr1 W1 O6,1.5237000000000003,1
16323,Mg6 Cu6 Mo12 O42,0.0,13
16324,Ti8 Zn8 Bi8 O40,0.0,61
16325,Ca4 Ti4 As8 O28,2.6932,14
16326,Ca4 Bi6 O16,0.0,186
16327,Y2 W6 O16,1.4606000000000003,13
16328,Ca4 Cr4 As8 O28,1.3289,14
16329,Mg4 Sn4 Ge8 O24,1.8365000000000005,14
16330,Mg1 Mn4 Cu3 O12,0.0,204
16331,Ba6 Y3 Sn6 F33,3.2299999999999995,145
16332,Y4 Mn13 Si2 Sb2 O28,0.9708000000000001,12
16333,Mg2 Ti4 S8,0.0,74
16334,Li2 V4 S8,0.0,1
16335,Mg2 Fe9 O13,0.5634000000000001,2
16336,Sr2 Mg2 Sn2 P4 O16,3.4052,2
16337,Sr2 V2 P4 O16,1.7375,2
16338,Mg2 V2 Si2 O10,1.2984999999999998,1
16339,Mg2 Si4 Sn2 O12,3.3193999999999995,15
16340,Ba2 Y2 Mn8 O14,0.0,186
16341,Ba2 Y1 Mn2 Tl1 O7,0.0,123
16342,Sr4 Mg1 Fe2 S2 O6,1.0546000000000002,115
16343,Sr4 Ca1 Mn2 S2 O6,0.0,115
16344,Sm1 Mg2 Sb2,0.0,164
16345,S8 Fe2 Rh4,0.0,227
16346,La24 Sm8 Co28 Ag4 O80,0.0,1
16347,Nd1 Ge5,0.0,71
16348,Li1 Mg4 Si2,0.0,123
16349,Mn1 Cr2 S4,0.0,12
16350,Y1 Mg7,0.0,225
16351,Co6 Si2,0.0,194
16352,Ba2 V1 Mo1 O6,0.3498000000000001,225
16353,K4 Tl4,0.0,194
16354,Y2 Sn6,0.0,38
16355,Mg4 Zn8,0.0,63
16356,Mg4 Sn8,0.0,38
16357,Mg4 Sn8,0.0,63
16358,Mg6 Sn6,0.0,38
16359,Sr6 Mg6,0.0,38
16360,Sr2 Mg6,0.0,194
16361,Mg4 Zn8,0.0,12
16362,Mg6 Sn2,0.0,44
16363,Mg12 Ga4,0.0,225
16364,Mg1 Zn3,0.0,25
16365,Sr3 Mg1,0.0,221
16366,Ba2 Ge10,0.0,74
16367,Pr4 Mn2 As5,0.0,164
16368,Re4 O8,0.0,14
16369,Ce1 Mg14 Sn1,0.0,38
16370,La4 Fe4 O10,0.8379000000000003,46
16371,Ba8 Sr24 Co12 Cu20 O80,0.0,1
16372,Ba12 Sr20 Ti32 O80,0.0,1
16373,Ca16 Sn16 S48,1.0419999999999998,88
16374,Ca16 Sn8 S32,2.2244,14
16375,Tb1 Bi1 Pd2,0.0,225
16376,Y2 B2 O6,4.478899999999999,6
16377,Te20 Pb20,0.4135,31
16378,Zr4 N4 O2,2.0144,9
16379,V3 Cr2 Fe1 P6 O24,0.0,146
16380,V1 O1 F2,1.3591,12
16381,Ti3 Co2 Sb1 P6 O24,0.0,146
16382,V3 Co3 P6 O24,0.0,146
16383,Sn8 P4 O18,2.0760000000000005,2
16384,Na2 V4 O10,0.6533,59
16385,Na2 Fe24 O38,0.0,8
16386,Nb1 Fe7 P12 O48,0.0,1
16387,Y4 Cu8,0.0,63
16388,Ag1 Mo6 Se8,0.0,148
16389,Na2 Ca2 Si2 O8,0.0,20
16390,K2 Pr1 Ag1 Cl6,3.2913,225
16391,K2 Li1 Bi1 I6,1.9247,225
16392,Na2 Ag1 Ir1 F6,0.9992999999999999,225
16393,K3 In1 Br6,2.4086,225
16394,K2 Tl1 Au1 Br6,0.0,225
16395,K2 Y1 In1 Cl6,3.0455,225
16396,Rb2 Sb1 Au1 Br6,0.0,225
16397,Cs1 Rb2 Sb1 Cl6,3.2887,225
16398,Rb2 Bi1 Au1 I6,0.0,225
16399,Rb2 In1 Ag1 I6,0.0,225
16400,K2 Sc1 Au1 Br6,1.5992,225
16401,K2 In1 Ag1 I6,0.0,225
16402,Cs2 Tl1 Ga1 I6,0.5740000000000001,225
16403,K2 Sm1 Cu1 Cl6,2.2477,225
16404,K2 Ce1 Cu1 Cl6,0.2709999999999999,225
16405,K2 La1 Ag1 Cl6,3.3505000000000003,225
16406,Cs2 K1 Ga1 Br6,2.0101,225
16407,Cs2 Gd1 Au1 Cl6,1.5263,225
16408,Cs2 Y1 Au1 Cl6,2.0553000000000003,225
16409,Cs3 In1 I6,1.6049,225
16410,Cs2 K1 Mo1 I6,1.4526999999999999,225
16411,Cs3 Ga1 Cl6,3.5291,225
16412,Cs2 Ce1 Cu1 Cl6,0.26780000000000026,69
16413,Cs2 Al1 Ag1 Br6,1.2019,225
16414,Rb2 Al1 In1 I6,0.8989000000000003,225
16415,Rb2 Tl1 Hg1 I6,0.0,225
16416,Rb3 Pr1 Cl6,4.5266,225
16417,Ti4 Zn4 Sn2 O14,2.8973999999999998,36
16418,Cu3 As4 O6 F6,0.0,217
16419,Ba8 Ni4 Ru4 O24,0.0,63
16420,La1 Pt3,0.0,221
16421,Sr1 Th1 F6,5.1335999999999995,187
16422,Sr8 Nb4 O18,1.5248999999999997,1
16423,Nb1 Rh1 O4,0.0,65
16424,Nb23 Ir5 S56,0.0,156
16425,Na1 Ho2 F7,6.500900000000001,1
16426,Na42 Zn2 S20 Cl6 O80,3.8486,1
16427,Li4 Mn1 Co3 O8,0.0,12
16428,Li4 Mn3 Co1 O8,0.0,166
16429,Li6 Mn2 Co2 O10,0.3027000000000002,2
16430,Li7 Co5 O12,0.0,2
16431,Li7 Co5 O12,0.3216999999999999,2
16432,Li7 Co5 O12,0.0,12
16433,Li7 Co5 O12,0.0,2
16434,Li5 Mn2 Co1 O8,0.5149999999999997,8
16435,Li8 Mn2 Co4 O14,0.8361000000000001,2
16436,Li8 Mn2 Co4 O14,0.8635999999999999,2
16437,Li8 Mn2 Co4 O14,0.9110999999999998,1
16438,Li8 Mn2 Co4 O14,0.7521,1
16439,Li7 Mn2 Co3 O12,0.8957000000000002,1
16440,Li7 Mn2 Co3 O12,0.4234,8
16441,Li9 Mn2 Co5 O16,0.6275,12
16442,Li9 Mn2 Co5 O16,0.5091999999999999,2
16443,Li9 Mn2 Co5 O16,0.5132999999999996,2
16444,Li9 Mn2 Co5 O16,0.5884,2
16445,Li9 Mn2 Co5 O16,0.4876999999999998,2
16446,Li9 Mn2 Co5 O16,0.3881000000000001,2
16447,Li9 Co7 O16,0.0,2
16448,Li9 Mn2 Co5 O16,0.4403999999999999,2
16449,Li9 Mn2 Co5 O16,0.43000000000000016,2
16450,Li9 Mn2 Co5 O16,0.4684999999999997,2
16451,Li9 Mn2 Co5 O16,0.22420000000000018,2
16452,Li9 Mn2 Co5 O16,0.3302999999999998,2
16453,Li9 Mn2 Co5 O16,0.7862,2
16454,Li9 Mn2 Co5 O16,0.45109999999999983,1
16455,Li9 Mn2 Co5 O16,0.3167,1
16456,Li9 Mn2 Co5 O16,0.42100000000000026,1
16457,Li9 Mn2 Co5 O16,0.5457999999999998,2
16458,Li9 Mn2 Co5 O16,0.2898999999999998,1
16459,Li9 Mn2 Co5 O16,0.33840000000000003,2
16460,Li9 Mn2 Co5 O16,0.3971999999999998,1
16461,Li9 Mn2 Co5 O16,0.8846999999999996,1
16462,Li9 Mn2 Co5 O16,0.6310000000000002,1
16463,Li9 Mn2 Co5 O16,0.5136000000000003,1
16464,Li9 Mn2 Co5 O16,0.4953000000000003,1
16465,Li9 Mn2 Co5 O16,0.43809999999999993,1
16466,Li9 Mn2 Co5 O16,0.22109999999999985,2
16467,Li9 Mn2 Co5 O16,0.4253,5
16468,Li9 Mn2 Co5 O16,0.5735000000000001,1
16469,Li9 Mn2 Co5 O16,0.4415,1
16470,Li9 Mn2 Co5 O16,0.7015000000000002,1
16471,Li9 Mn2 Co5 O16,0.3807999999999998,1
16472,Li9 Mn2 Co5 O16,0.7692999999999999,1
16473,Li9 Mn2 Co5 O16,0.6255999999999999,1
16474,Li9 Mn2 Co5 O16,0.5806,1
16475,Li9 Mn2 Co5 O16,0.9062000000000001,1
16476,Li9 Mn2 Co5 O16,0.3626999999999998,1
16477,Li9 Mn2 Co5 O16,0.8729,1
16478,Li9 Mn2 Co5 O16,0.8853999999999997,1
16479,Li9 Mn2 Co5 O16,0.8759000000000001,1
16480,Li9 Mn2 Co5 O16,0.8054000000000001,1
16481,Li9 Mn2 Co5 O16,0.4113000000000002,1
16482,Li9 Mn2 Co5 O16,0.7623000000000002,1
16483,Li9 Mn2 Co5 O16,0.5076,1
16484,Li9 Mn2 Co5 O16,0.7113999999999998,1
16485,Li9 Mn2 Co5 O16,0.5009000000000001,1
16486,Li9 Mn2 Co5 O16,0.7922000000000002,1
16487,Li9 Mn2 Co5 O16,0.5648999999999997,1
16488,Li9 Mn2 Co5 O16,0.6613000000000002,12
16489,Li9 Mn2 Co5 O16,0.7898999999999998,12
16490,Li9 Mn2 Co5 O16,0.8176999999999999,12
16491,Li9 Mn2 Co5 O16,0.4535,3
16492,Mn2 Ga2 O6,0.0,194
16493,Mn3 V1 Fe2 P6 O24,0.0,146
16494,Mn3 Cr2 Fe1 P6 O24,0.0,146
16495,Li2 V2 F8,2.2401999999999997,15
16496,Na4 Fe4 C8 S2 O32,0.0,1
16497,Li4 Ti4 Si4 O16,0.037799999999999834,95
16498,Li4 Ti4 P8 O28,0.18430000000000035,15
16499,Li3 Ni3 B3 O9,2.5265,174
16500,Li4 Fe8 O4 F12,2.0534,17
16501,Li8 Fe8 P16 O56,1.6134,1
16502,Li8 Mn8 P16 O56,0.11709999999999998,1
16503,Li6 Nb1 Ni3 P6 O24,0.0,1
16504,Li6 Ni3 Sb1 P6 O24,0.0,1
16505,Li5 Fe3 O2 F10,1.7673999999999999,1
16506,Li6 Fe3 Co5 O16,0.0,6
16507,Li40 Ni8 H8 O32,2.4872,62
16508,Li32 Ti8 O32,3.3164000000000002,1
16509,Li4 Ni5 Sb1 O12,0.0,12
16510,Li4 V3 Co1 Cu2 P6 O24,0.0,1
16511,Li4 Mn3 V3 Fe2 O16,0.7747000000000002,1
16512,Li6 V2 S6,0.0,161
16513,Li3 Ti2 Nb1 O6,0.0,12
16514,Li12 Mn4 V4 P12 O48,0.1198999999999999,148
16515,Li12 Mn4 V4 P12 O48,0.0,15
16516,Li3 V1 Cr4 O8,0.040599999999999525,12
16517,Li3 V8 O11,0.1706000000000003,8
16518,Li2 Ti1 Cr1 O4,0.0,119
16519,Li4 Fe10 Si10 O32,2.5835,4
16520,Li8 Fe12 W4 O32,1.2696999999999998,1
16521,Li2 Fe3 Cu1 O8,0.0,12
16522,Li12 V3 Ni1 P4 C4 O28,1.7633000000000005,6
16523,Li10 Cr2 Fe3 Co3 O16,0.5089000000000001,1
16524,Ho10 Ti10 O34,0.0,31
16525,Fe5 O1 F11,1.0570000000000002,1
16526,Fe12 O8 F8,1.0171999999999999,1
16527,Cr1 W3 O12,1.4982,1
16528,Ca2 Ti6 N2 O11,2.0789999999999997,8
16529,Sn4 Sb4,0.0,65
16530,Sn8,0.0,15
16531,Na2 V4 O10,1.1804000000000001,31
16532,Na8 O16,0.02760000000000007,1
16533,Li4 P12 N8 O44,1.2278,14
16534,Fe3 Co1 Bi4 O12,0.7777000000000003,1
16535,Al3 Ag1,0.0,221
16536,Ba3 Na1,0.0,139
16537,Ba1 Eu3,0.0,225
16538,Ce3 Cd1,0.0,139
16539,Cr2 Br4,0.3125,136
16540,Ce1 Sm1 Mg2,0.0,225
16541,Li1 Pr2 Rh1,0.0,225
16542,Mg16 Al12 Cr1,0.0,217
16543,Mg1 Pt5,0.0,189
16544,Pm6 Ag2,0.0,194
16545,Pu6 Au2,0.0,194
16546,Sb1 Au3,0.0,221
16547,Sc6 Bi2,0.0,194
16548,Sm3 Eu1,0.0,221
16549,Th2 Ag6,0.0,194
16550,Yb3 Nd1,0.0,225
16551,Zn6 In2,0.0,63
16552,U6 Sn8 Au6,0.0,220
16553,Cs4 O12,0.9260999999999999,14
16554,Y4 Si12,0.0,139
16555,Re8 Mo12 C4,0.0,213
16556,Ho4 C4 O16,0.7376,19
16557,Tb2 Mn3 Cu9 P7,0.0,6
16558,Cd1 H10 S2 N4 O8,4.4172,2
16559,Zn4 N24,3.3892,14
16560,Ce2 B8 Cl2 O16,0.018799999999999928,9
16561,Fe4 Cu2 P4 O20,0.0,14
16562,As2 H4 S2 N2 F20,4.5826,2
16563,K4 Cu10 Te2 S6 O38,0.04369999999999985,11