Index,Composition,bandgap,spgN
6045,Ba2 H12 C4 S4 N4 O6,4.1094,12
6046,Cu4 H88 C32 N40 O4,0.8007,15
6047,K8 H24 Pt4 C16 N16 O12,1.8723,60
6048,Na4 B10 H10 O24,0.06840000000000002,2
6049,H36 C4 S4 O28 F12,5.8426,14
6050,Cu8 H32 C16 S16 N16 Cl8,0.9968000000000001,61
6051,Be4 B24 H64,3.4994,14
6052,V4 Cu2 H12 N4 O12,0.6950000000000001,7
6053,Mn4 P12 H40 C12 N4 O36,4.7284,14
6054,Co8 P8 H32 Cl8 O24,3.0437,61
6055,Li4 Ti2 Nb3 Cu3 O16,0.0,8
6056,Ba4 Cu4 O8,0.0,4
6057,Ba2 Nd2 O6,0.0,167
6058,Ce4 Ti2 O10,0.0,15
6059,Sc2 Cu4 O8,0.0,141
6060,Li1 Cu1 O2,0.0,156
6061,Ti3 O3,0.0,221
6062,Ba4 Cu4 O8,0.0,4
6063,K4 Ti2 P2 C2 O14,0.1251000000000002,11
6064,Li2 Cu2 C2 O6 F2,0.0,26
6065,Zr8 N8 O4,0.19730000000000025,6
6066,Ti8 O16,2.3165,186
6067,La4 Sb2 O12,0.07399999999999984,14
6068,Li6 Nb2 P6 O22,0.7343999999999999,2
6069,Li2 Cu6 C6 O18,0.0,6
6070,Li2 Cu4 P2 O8,0.5,7
6071,Li24 Cu24 P24 O96,0.038000000000000256,170
6072,Li2 Cu4 C6 O18,0.0,1
6073,Li12 Cu12 P12 O48,0.0,181
6074,Li1 Cu2 P1 O4,0.21689999999999987,82
6075,Ga2 H10 N4 F4,2.7104999999999997,12
6076,Li12 Cu12 P12 O48,0.0,181
6077,Ag2 Ge2 O6,0.0,51
6078,In4 Ag2,0.0,140
6079,Yb8 Br12 O2,3.0092,137
6080,Li2 Cu2 P4 O12,0.8632,1
6081,Li4 Mn2 Nb6 O16,0.15270000000000028,186
6082,Fe3 Co3 Sb2 O16,0.0,1
6083,Li2 Co4 P6 O24,0.0,167
6084,Li2 Ti4 P6 O22,0.06820000000000004,5
6085,Li6 Fe7 O15,0.0,1
6086,Li3 Ti2 Co3 O10,0.4455999999999998,2
6087,Fe8 O14 F2,0.0,4
6088,Fe8 O14 F2,0.0,2
6089,Cr2 Co1 Ni3 P6 O24,0.0,146
6090,Fe8 O14 F2,0.0,4
6091,Fe4 O7 F1,0.0,44
6092,Li8 Fe4 Si4 O20,0.0,26
6093,Co6 O7 F5,0.0,5
6094,Co6 O5 F7,0.0,8
6095,Li5 Co5 O9 F1,0.5529000000000002,1
6096,Li6 Co5 O10,0.0,1
6097,Li3 V1 O3 F2,2.8286,1
6098,Co6 O6 F6,0.0,31
6099,Co6 O7 F5,0.0,1
6100,Li5 Fe8 B8 O24,1.2275999999999998,1
6101,Li4 Fe8 B8 O24,0.7990999999999999,1
6102,Fe8 O14 F2,0.0,63
6103,Li8 Fe5 O10,0.0,8
6104,Cr24 O16 F16,1.4514,14
6105,Nd2 Ni1 O4,0.6717999999999997,44
6106,Fe2 Co4 O12,0.0,64
6107,Ti1 Co2 O6,1.2311999999999999,1
6108,Li8 Cu4 Si4 O16,0.08440000000000003,14
6109,Li5 Co5 Cu2 O12,0.0,5
6110,Li12 Sb6 S2,0.0,14
6111,Li4 Co3 Cu1 O8,0.0,166
6112,Li2 V2 Co2 O8,0.0,74
6113,Li4 Ni8 P8 O32,0.863,7
6114,Ce4 Re4 O16,0.0,14
6115,Zn4 Fe4 O12,0.0,15
6116,Zn2 Fe2 O6,0.0,148
6117,V2 Co3 Te3 O16,0.17039999999999988,8
6118,Ti6 Cr6 O18,0.0,1
6119,Li4 Cr2 O4,1.4981,36
6120,Ti2 Mn3 Fe3 O16,0.0,1
6121,Co4 O8,0.0,160
6122,Li6 Tl2 P2 C2 O14,0.0,4
6123,Nb4 Fe4 O16,2.024,95
6124,Ti6 V2 O16,1.5775000000000001,9
6125,Li4 Ti5 Nb3 O16,0.0,8
6126,Mn2 Fe3 Co3 O16,0.0,8
6127,Li5 Nb2 Ni5 O12,0.0,1
6128,Li2 Cu10 P4 O16,0.26560000000000006,1
6129,Li5 Cu5 Ni2 O12,0.0,5
6130,Li3 Fe5 Co2 O12,0.5874000000000001,5
6131,Ti4 Sb2 P6 O24,0.0,167
6132,Li4 Mn4 Cu2 O12,0.23470000000000013,64
6133,Fe3 O1 F7,2.5013,160
6134,Ti5 Nb1 P6 O24,0.006299999999999528,146
6135,Li4 Nb4 Cu4 O16,0.0,95
6136,Li2 V2 O6,2.0871999999999997,12
6137,Li5 V5 Ni2 O12,1.354,5
6138,Li2 Mn1 Nb3 O8,0.047800000000000065,160
6139,Li4 Cu4 Sb4 O16,0.0,95
6140,W8 N16,0.5701999999999998,1
6141,Li4 Nb4 P6 O24,0.0,15
6142,Ti2 Cr3 Sb3 O16,1.6584999999999996,8
6143,Na4 Ti11 O24,2.2516,8
6144,Li18 Nb6 P16 O58,0.1548999999999996,165
6145,Fe4 Co6 O20,0.0,6
6146,Li4 V3 Cr3 Cu2 O16,0.0015000000000000568,1
6147,Fe6 O10 F2,0.0,6
6148,Fe6 O4 F12,0.1911,14
6149,Li2 Cu10 P4 O16,0.3059000000000003,1
6150,Co6 O6 F6,0.0,10
6151,Li10 Mn3 Co2 Ni3 O16,0.06680000000000019,1
6152,Fe4 O7 F1,0.0,38
6153,Fe6 O11 F1,0.0,38
6154,Fe10 O16 F4,0.0,14
6155,Fe8 O14 F2,0.0,12
6156,Fe8 O14 F2,0.0,7
6157,Fe8 O14 F2,0.0,15
6158,Fe6 O10 F2,0.0,12
6159,Li2 Cu4 P2 O8,0.7725,4
6160,Fe8 O14 F2,0.0,36
6161,Na8 Fe12 O26,0.0,1
6162,Fe8 O12 F4,0.0,14
6163,Li6 Cr6 Fe3 O18,0.0,2
6164,Fe8 O14 F2,0.0,1
6165,C2 Lu1,0.0,139
6166,F1 Cs1,5.9329,221
6167,Li4 Fe2 O6,0.0,12
6168,Co8 O8 F8,0.0,10
6169,Fe8 O14 F2,0.0,1
6170,Fe6 O10 F2,0.0,1
6171,Fe6 O10 F2,0.0,1
6172,Co8 O4 F12,0.0,63
6173,Li4 Mn3 Nb1 P4 O16,0.3258000000000001,6
6174,Tm2 Os1 Ru1,0.0,225
6175,Li2 Ce1 Al1,0.0,225
6176,Ca16 Sn8 S32,2.0265,33
6177,Ca4 Sn4 S12,0.7909999999999995,62
6178,Li3 Mn1 V3 O8,0.4072999999999998,8
6179,Li12 Co4 O12,1.2076000000000002,136
6180,Si1 Au1 U1,0.0,187
6181,C9 N12,2.1853,144
6182,Zn3 In1,0.0,139
6183,Zn6 Hg2,0.0,194
6184,Na2 Mg2,0.0,51
6185,Sb1 Pt3,0.0,139
6186,K3 Ag1,0.0,221
6187,Na1 Mg3,0.0,139
6188,Sm2 Mg1 Ir1,0.0,225
6189,Yb1 Dy3,0.0,221
6190,Yb6 Y2,0.0,194
6191,Ti3 Nb1,0.0,221
6192,Al6 Fe2,0.0,194
6193,H8 C8,3.5572000000000004,12
6194,V1 Cu1 O2,0.0,12
6195,Fe8 O14 F2,0.0,11
6196,Tl1 Cd1 Se2,0.0,164
6197,Ti3 Sn1,0.0,225
6198,Zn2 Ni4 S8,0.0,141
6199,Mg1 Co4 S8,0.0,166
6200,Mg8 Mn8 Si12 O48,1.3375000000000004,142
6201,Mn4 Al2 O8,0.0,166
6202,Ca2 Cr4 S8,1.2807999999999997,227
6203,Ca2 Co4 O8,0.8031000000000001,141
6204,Mn2 Si4 O12,0.9207000000000001,15
6205,Zn2 Fe4 O8,1.8597000000000001,12
6206,Ca2 Bi2 As2 O12,0.5539999999999998,4
6207,Sr9 Zn3 Cu2 O14,0.0,1
6208,Mg4 V8 O16,1.4861000000000004,62
6209,Ca8 Nb8 Co4 O36,0.9804999999999999,14
6210,Mg1 Co4 O8,0.2708999999999997,8
6211,Ca1 Ni4 O8,0.0,8
6212,Ca1 Si4 Ni2 O12,0.0,5
6213,Ca2 Ti4 O8,0.0,141
6214,Mg2 W2 F10,3.3849,15
6215,Mg2 Co2 F8,3.8341000000000003,1
6216,Ca4 Cu2 Rh2 O12,0.0,5
6217,Ba12 Y20 Cu12 O60,0.18920000000000003,14
6218,Sr12 Y2 Ga6 Cu12 O42,0.0,1
6219,Ca4 V2 N4,0.0,12
6220,Y2 V4 O8,0.0,166
6221,W4 O8,2.2338000000000005,2
6222,Mg4 Ag4 F20,0.010400000000000187,14
6223,Ca12 Si12 Ag8 O48,0.0,230
6224,Zn4 Ag2 Sb2 O12,0.07520000000000016,11
6225,Ca4 Sb4 O12,0.14400000000000013,11
6226,Mg4 Ta2 Ti2 O12,0.0,11
6227,Mg4 Ta2 Ag2 O12,0.5513999999999997,11
6228,Ca4 Ta2 Sn2 O12,0.014299999999999535,11
6229,Mg12 Cu8 Ge12 O48,0.3863000000000003,230
6230,Mg6 Ti4 Si8 O28,0.14149999999999974,15
6231,Ca6 Si8 Bi4 O28,2.8762999999999996,15
6232,Al8 Si12 Ni12 O48,3.42,230
6233,Ta2 Mn2 Zn4 O12,0.6522999999999999,11
6234,Ta2 Zn4 Cr2 O12,2.5616000000000003,11
6235,Zn12 Co8 Ge12 O48,2.3118999999999996,230
6236,Mg6 Cr4 Si8 O28,2.2870999999999997,15
6237,Ca2 Si4 Sn2 O12,2.9821999999999997,15
6238,Mg4 Bi2 W2 O12,2.0712,14
6239,Ca4 Sn2 W2 O12,1.6470000000000002,14
6240,Ti2 Zn4 W2 O12,1.6179000000000001,14
6241,Mg4 V2 W2 O12,1.4568000000000003,14
6242,Mg6 Ag12 O24,0.0,1
6243,V12 Zn6 O24,1.3186,1
6244,Sn2 P4 O14,2.3912000000000004,2
6245,Ca4 Sn4 As4 O20,1.8558,1
6246,Mg4 Cr4 As4 O20,1.657,4
6247,P4 W2 O14,2.4810999999999996,2
6248,Ca2 Co1 W1 O6,1.6033,1
6249,Zn4 Co2 Ir2 O12,0.0,14
6250,Al2 Ni6 F30,0.0,11
6251,Mg8 Cu8 Bi8 O40,0.04420000000000002,61
6252,Cr4 Ge8 O24,0.829,14
6253,Mg4 Bi8 P8 O36,2.4445,62
6254,Mg4 Ag8 P8 O36,0.015700000000000047,6
6255,As2,0.0,221
6256,Mg2 Mn3 O6,0.1482000000000001,12
6257,Zn6 H6 C6 O24,0.0005999999999999339,176
6258,Ga1 Co2 Ni1,0.0,225
6259,Ce1 Mg3,0.0,25
6260,Na1 Mg6 Bi1,0.0,38
6261,Ce1 Mg6 Cd1,0.0,38
6262,Pu2 Sb2 Te2,0.0,129
6263,Li8 N1 O3,0.0,221
6264,Zn2 Ge2 O6,1.3775,161
6265,Mg6 Cu1 Sn1,0.0,38
6266,Mg6 Cu1 Sn1,0.0,38
6267,Mg6 Zr1 Bi1,0.0,38
6268,Sr1 Mg6 Zr1,0.0,38
6269,Li1 Mg6 Zr1,0.0,38
6270,Cu8 O6,0.0,129
6271,Mg6 Al1 Sb1,0.0,38
6272,Ca1 Mg6 Al1,0.0,38
6273,Y1 Mg6 Al1,0.0,38
6274,Mg3 Cr1 O4,0.0,221
6275,Te2 Mo1 W2 Se2 S2,0.41270000000000007,156
6276,Mg14 Cr1 Bi1,0.0,187
6277,Mg14 Cr1 Sb1,0.0,38
6278,Mg14 Nb1 Sb1,0.0,187
6279,Sr1 Mg14 Bi1,0.0,38
6280,Mg14 Si1 Sb1,0.0,38
6281,La1 Mg14 Sb1,0.0,38
6282,La1 Mg14 Co1,0.0,38
6283,Te6 Mo2 W2 S2,0.012099999999999778,156
6284,Te2 Mo2 W2 Se2 S4,0.0,156
6285,Te6 Mo2 W2 S2,0.0,156
6286,Te2 Mo2 W2 Se2 S4,0.0,156
6287,Te2 Mo2 W2 Se2 S4,0.0,156
6288,Te6 Mo2 W2 S2,0.0,156
6289,La1 Mg14 Cu1,0.0,187
6290,Mg14 Zr1 Cr1,0.0,38
6291,Sr1 Mg14 Zr1,0.0,187
6292,Mg14 Co1 Cu1,0.0,187
6293,Hf1 Mg14 Zr1,0.0,187
6294,Mg14 Zr1 V1,0.0,38
6295,Mg14 V1 Zn1,0.0,187
6296,Mg14 Nb1 Zn1,0.0,38
6297,Mg14 Zn1 Cr1,0.0,38
6298,Mg14 Zr1 Ni1,0.0,38
6299,Na1 Mg14 Mn1,0.0,187
6300,Y1 Mg14 Ni1,0.0,187
6301,Ca1 Hf1 Mg14,0.0,38
6302,Ca1 Mg14 Mn1,0.0,187
6303,Ca1 Mg14 Ti1,0.0,187
6304,Ca1 Mg14 Sn1,0.0,187
6305,Ca1 Mg14 Mn1,0.0,38
6306,Ca1 Mg14 Ti1,0.0,38
6307,Mg14 Mn1 Al1,0.0,187
6308,Ca1 Mg14 Si1,0.0,38
6309,La1 Mg14 Al1,0.0,187
6310,Sr1 Ca1 Mg14,0.0,38
6311,Mg14 Al1 Cr1,0.0,38
6312,Ce1 Mg14 Al1,0.0,187
6313,Mg14 V1 Bi1,0.0,38
6314,Sr1 Mg14 Sn1,0.0,38
6315,Mg14 V1 Ga1,0.0,187
6316,Li1 Mg14 V1,0.0,38
6317,Na1 Mg14 Ni1,0.0,38
6318,Na1 Mg14 Ni1,0.0,187
6319,Mg14 Co1 Sb1,0.0,38
6320,Mg14 Co1 Bi1,0.0,38
6321,Mg14 Ga1 Co1,0.0,38
6322,Te6 Mo2 W2 S2,0.025799999999999823,156
6323,Te2 Mo2 W2 Se2 S4,0.40700000000000003,156
6324,Te6 Mo2 W2 S2,0.0,156
6325,Te6 Mo2 W2 S2,0.00550000000000006,156
6326,Na1 Mg6 Ga1 O8,2.1919,123
6327,Na1 Mg6 Al1 O8,3.2520999999999995,123
6328,Ca1 Mg6 Cr1 O8,0.0,123
6329,Mg6 Cr1 Co1 O8,0.0,123
6330,Na1 Mg6 Co1 O8,0.07160000000000011,123
6331,Mg14 Ti1 Cr1 O16,0.0,47
6332,Na1 Mg14 Sb1 O16,1.2875999999999994,47
6333,Na1 Mg14 Sb1 O16,1.5487000000000002,123
6334,Na1 Mg14 Bi1 O16,1.8569000000000004,47
6335,Sr1 Mg14 Cd1 O16,2.4501999999999997,123
6336,Sr1 Mg14 Cr1 O16,0.8229000000000006,47
6337,Mg14 Ti1 Co1 O16,0.0,123
6338,Mg14 Ti1 Cu1 O16,0.0,47
6339,Na1 Li1 Mg14 O15,1.3890999999999996,25
6340,Mg14 Fe1 Sn1 O16,0.19340000000000046,123
6341,Mg14 Fe1 Sn1 O16,0.05060000000000109,47
6342,Mg14 Al1 Cr1 O16,0.20609999999999928,123
6343,Mg14 Al1 V1 O16,0.12570000000000014,123
6344,Mg14 Mn1 Al1 O16,0.0,123
6345,Mg14 Al1 V1 O16,0.22579999999999956,47
6346,Ca1 Mg14 Al1 O16,0.15939999999999976,123
6347,Mg14 Al1 Fe1 O16,0.0,123
6348,Mg30 Ti1 Sn1 O32,0.24799999999999933,123
6349,Mg30 Ti1 Sn1 O32,0.3196999999999992,123
6350,Mg30 Si1 Ni1 O32,0.39509999999999934,123
6351,Mg30 Co1 B1 O32,1.2622000000000009,123
6352,Y1 Mg30 Nb1 O32,0.0,123
6353,Y1 Hf1 Mg30 O32,0.010399999999998855,123
6354,Y1 Mg30 Nb1 O32,0.0,123
6355,Rb1 Y1 Mg30 O32,3.1720000000000006,123
6356,Hf1 Mg30 Al1 O32,0.0,123
6357,Mg30 Al1 B1 O32,2.466500000000001,123
6358,Ba1 Mg30 Al1 O32,0.35110000000000063,123
6359,Cs1 Mg30 Mn1 O32,1.8362999999999996,123
6360,Mg30 Al1 Si1 O32,0.12600000000000122,123
6361,Hf1 Mg30 Ga1 O32,0.0,123
6362,Hf1 Mg30 Ga1 O32,0.0,123
6363,Sr1 Hf1 Mg30 O32,0.0,123
6364,Ca8 Mg4,0.0,38
6365,Mg1 Al1,0.0,187
6366,Mg8 Bi4,0.0,12
6367,Mg1 Bi1,0.0,221
6368,Mg2 Bi2,0.0,51
6369,Sn6 Bi2,0.0,139
6370,Ca6 Mg6,0.0,8
6371,Ce12 Mg6,0.0,155
6372,Rb1 Li1 Mg30 O31,2.3856,25
6373,K1 Hf1 Mg30 O31,0.0,99
6374,K1 Mg30 Si1 O32,0.42630000000000123,123
6375,K1 Mo1 O3,0.0,221
6376,La1 Cr1 Re1 O6,0.0,1
6377,Ho2 Mn4 Zn2 O12,0.0,31
6378,Ho2 Zn2 Cr4 O12,0.22599999999999998,6
6379,V8 Zn2 O18,2.1239,85
6380,Ca4 Bi8 O16,1.2355,57
6381,Zn2 Cu4 O8,0.0,74
6382,Mg6 Cr12 Cu6 O42,0.3327,13
6383,Zn6 Cr12 Cu6 O42,0.22880000000000011,13
6384,Bi1 W2 O8,0.19019999999999992,2
6385,Al2 Co6 F30,0.0,11
6386,Ba1 Y1 Cu1 Ag1 O5,0.0,99
6387,Pr2 Zn2 Cu4 O12,0.0,4
6388,Ti4 As8 O28,2.2662,14
6389,Mg4 Fe6 O16,0.0,186
6390,Zn4 Ni6 O16,0.38859999999999983,186
6391,Ca2 Ti2 Ge4 O12,1.5545999999999998,15
6392,Mn8 Zn2 O12,0.0,63
6393,Mg3 Fe4 Bi6 O24,0.0,2
6394,Mg1 V4 Cu3 O12,0.0,2
6395,Ca2 Cr8 O12,0.24950000000000028,63
6396,Ca2 Bi4 P4 O20,0.0,43
6397,Ta4 Zn4 Bi4 O20,3.6399999999999997,14
6398,Zn4 Bi8 O20,0.33450000000000024,14
6399,Ti2 Zn2 Bi2 P6 O24,1.8916999999999997,161
6400,Mg4 Ti12 O28,2.8266,62
6401,Ti12 Zn4 O28,2.9147,62
6402,La2 Zn2 Fe4 O12,0.0,31
6403,La2 Zn2 Fe2 Sb2 O12,1.1670999999999996,7
6404,Zn2 Cr4 P4 O20,0.0,43
6405,Mg4 Mn4 Bi4 O20,0.9758,14
6406,Al4 Cu13 Si2 Sb2 O28,0.0,1
6407,Ba1 Zn1 Fe4 O8,1.5779000000000003,162
6408,Pr2 Mg2 Cr4 O12,0.5841000000000003,7
6409,La2 Mg2 Mn2 Cr2 O12,0.9613000000000005,7
6410,Sr4 Y4 Ni4 O14,0.38339999999999996,46
6411,Mn4 Al2 S8,0.0,12
6412,Mg2 W4 O12,1.1675000000000004,7
6413,Sr2 Bi2 P4 O16,0.0,2
6414,Sr4 Al2 Cu6 O14,0.0,1
6415,Sr2 P4 W2 O16,3.1449000000000003,2
6416,V10 Zn8 Te6 O36,0.13269999999999982,5
6417,Zn2 Cu8 O12,0.0,63
6418,V1 Zn2 W1 O6,0.6469000000000005,1
6419,Ca2 Ti4 O8,0.0,2
6420,Zn4 Ag8 O16,0.23470000000000013,57
6421,Ca4 Co4 O8,1.8656000000000001,1
6422,Ba2 Al2 Co8 O14,0.18699999999999983,186
6423,Fe4 P8 O28,0.3708,14
6424,Sr3 Ca1 Mn2 S2 O5,0.0,119
6425,C8 N12 Mg2,4.6077,58
6426,Sc4,0.0,229
6427,Ti2 Mn1 Ga1,0.05250000000000021,216
6428,Sm1 Mg2 Bi2,0.0,164
6429,Sm4 Co4 O10,0.7309999999999999,46
6430,Ca4 Ti4 O10,0.0,46
6431,La7 Sm1 Cr2 Fe6 O24,0.8487000000000009,35
6432,La7 Sm1 Mn4 Fe4 O24,0.0,99
6433,Y2 Cu4,0.0,227
6434,V2 P2 S6,0.0,12
6435,Y1 Mg1 Ni4 H4,0.0,216
6436,Ho2 Ni4 Sb4,0.0,129
6437,La2 Co2 Se2 O3,0.09309999999999974,139
6438,Hf3 As3 Os3,0.0,189
6439,La2 I2 O6,0.7465999999999999,12
6440,Re12 N16,0.0,62
6441,K2 I2 Cl4 O2,0.7809999999999999,11
6442,Al1 Ce1,0.0,221
6443,Zn2 Ga8 S14,2.1153,31
6444,Sr1 Ca3 Mn4 O12,0.0,123
6445,Sc4 F12,5.7355,62
6446,Rb4 Ce4 Fe8 O22,0.06990000000000052,53
6447,Hf6 Mg2,0.0,194
6448,Sr6 Mg6,0.0,38
6449,Mg1 Ti5,0.0,189
6450,Y12 Mg6,0.0,155
6451,Mg4 Zn8,0.0,12
6452,Mg3 Zn3,0.0,166
6453,Mg4 Zn8,0.0,8
6454,Mg6 Zn6,0.0,8
6455,Mg4 Ti8,0.0,63
6456,Y8 Mg4,0.0,8
6457,Mg8 Sn4,0.0,12
6458,Mg2 Zn2,0.0,59
6459,Sc1 Ag1 O2,1.78,160
6460,Al2 Zn1 S4,1.6252,166
6461,Al1 Cu1 S2,1.3764000000000003,160
6462,Eu1 B12,0.0,225
6463,H24 Pb4 C4 N4 F12,3.7996000000000003,1
6464,Mg30 Cu1 Si1 O32,0.0,123
6465,Na1 Mg30 B1 O31,2.5042999999999997,25
6466,Sr1 Hf1 Mg30 O32,0.0,123
6467,Mg3 Co1 O4,0.0,221
6468,Sr2 Ca6 Co7 Cu1 O24,0.0,38
6469,Ba24 Sr8 Co8 Cu24 O80,0.0,1
6470,Ca2 Sn2 S6,0.3945000000000003,4
6471,Ca16 Sn12 S40,0.9459000000000004,61
6472,Ca9 Sn3 S15,2.0193000000000003,160
6473,Mg12 Si8,0.0,12
6474,Li9 Mn2 Co5 O16,0.0,6
6475,Li9 Mn2 Co5 O16,0.0,6
6476,Li9 Mn2 Co5 O16,0.0,6
6477,Li9 Mn2 Co5 O16,0.0,6
6478,Li9 Mn2 Co5 O16,0.0,6
6479,Li9 Mn2 Co5 O16,0.0,6
6480,Li9 Mn2 Co5 O16,0.0,6
6481,Li9 Mn2 Co5 O16,0.0,6
6482,Li9 Mn2 Co5 O16,0.0,8
6483,Li9 Mn2 Co5 O16,0.0,8
6484,Li9 Mn2 Co5 O16,0.0,8
6485,Li9 Mn2 Co5 O16,0.0,8
6486,Li9 Mn2 Co5 O16,0.0,8
6487,Li9 Mn2 Co5 O16,0.0,8
6488,Li9 Mn2 Co5 O16,0.0,8
6489,Li9 Mn2 Co5 O16,0.0,8
6490,Li9 Mn2 Co5 O16,0.0,10
6491,Li9 Mn2 Co5 O16,0.0,10
6492,Li9 Mn2 Co5 O16,0.0,10
6493,Li9 Mn2 Co5 O16,0.0,12
6494,Li9 Mn2 Co5 O16,0.0,12
6495,Li9 Mn2 Co5 O16,0.0,12
6496,Zn4 Cu4 As4,0.0,7
6497,V18 Ag2 O45,0.21429999999999993,1
6498,V34 S38,0.0,8
6499,Ag2 Se10,0.0,9
6500,Ti2 Cr1 Fe3 P6 O24,0.5547,146
6501,Tb2 Ga2 O6,3.7152,167
6502,Ti4 Cu8 O12,0.9287999999999998,15
6503,Ti1 Mn3 Co2 P6 O24,0.0,146
6504,Li2 Fe2 P4 O14,1.9989,1
6505,Fe6 P8 O32,0.0,2
6506,Pr4 O8,0.0,62
6507,Ir4 S8,0.0,205
6508,Li3 Mg8 Si4,0.0,221
6509,Cr1 Mo6 Se8,0.0,2
6510,Ba1 Fe2 P2 O8,0.3376000000000001,148
6511,Na1 Co2 Mo2 O10,0.0,12
6512,Cs4 Mo2 S4 O4,2.4625000000000004,15
6513,Sb1 Mo6 S8,0.0,148
6514,Zn4 As2 O10,0.0,2
6515,Mn1 V4 Cu3 O12,0.0,204
6516,Ca1 Ti4 Pd3 O12,0.4513000000000007,204
6517,K3 Pr1 I6,3.174,225
6518,K2 Y1 Tl1 F6,4.3375,225
6519,K3 Al1 Br6,3.1738,225
6520,K2 Tl1 Ga1 Cl6,2.3222,225
6521,K2 Rb1 Al1 Cl6,4.3421,225
6522,Cs1 Rb2 Al1 Cl6,4.3345,225
6523,Cs1 Rb2 Al1 I6,2.121,225
6524,K2 Tl1 Hg1 I6,0.0,225
6525,K2 In1 Au1 Br6,0.0,225
6526,Cs1 K2 Sc1 Cl6,4.0883,225
6527,Rb2 Hg1 Bi1 F6,0.0,225
6528,K2 Ga1 Ag1 Br6,0.0,225
6529,Cs2 K1 Au1 Cl6,0.2831,225
6530,Cs2 K1 Ga1 I6,0.8284000000000001,225
6531,Cs2 Sc1 Au1 Cl6,1.8942,225
6532,Rb2 Ce1 Cu1 F6,0.05790000000000006,225
6533,Rb2 Ga1 Hg1 Br6,0.0,225
6534,Rb3 In1 I6,1.4107,225
6535,Ca5 Cr2 N6,0.7793000000000001,6
6536,Ti4 Zn3 Sn1 O12,1.2702,204
6537,Ti3 Cu1,0.0,221
6538,Gd1,0.0,229
6539,Ba4 Cu3 I1 O12,0.0,229
6540,Sr2 Cu1 S2 Cl2,0.0,139
6541,Rb4 Sb2 O5,0.006400000000000183,38
6542,Na2 U4 Cl12,0.0,1
6543,Nb27 N37 O3,0.0,1
6544,Li2 Mn1 Co1 O4,0.0,166
6545,Li3 Mn2 Co1 O6,0.0,164
6546,Li6 Mn2 Co2 O10,0.2184999999999997,1
6547,Li5 Mn1 Co2 O8,0.0,10
6548,Li6 Mn2 Co2 O10,0.0686,1
6549,Li6 Mn2 Co2 O10,0.1903999999999999,1
6550,Li6 Mn2 Co2 O10,0.1724000000000001,1
6551,Li6 Mn2 Co2 O10,0.2884000000000002,1
6552,Li8 Co6 O14,0.0,12
6553,Li8 Mn2 Co4 O14,0.0,8
6554,Li8 Mn2 Co4 O14,0.0,8
6555,Li8 Mn2 Co4 O14,0.0,8
6556,Li5 Mn2 Co1 O8,0.10289999999999999,1
6557,Li8 Mn2 Co4 O14,0.22049999999999992,2
6558,Li8 Mn2 Co4 O14,0.0,1
6559,Li8 Mn2 Co4 O14,0.17029999999999967,1
6560,Li8 Mn2 Co4 O14,0.08029999999999982,1
6561,Li8 Mn2 Co4 O14,0.2860999999999998,1
6562,Li8 Mn2 Co4 O14,0.23960000000000026,1
6563,Li8 Mn2 Co4 O14,0.0,1
6564,Li8 Mn2 Co4 O14,0.23939999999999984,1
6565,Li8 Mn2 Co4 O14,0.055199999999999694,1
6566,Li8 Mn2 Co4 O14,0.18469999999999986,1
6567,Li8 Mn2 Co4 O14,0.3048000000000002,1
6568,Li8 Mn2 Co4 O14,0.4260999999999999,1
6569,Li8 Mn2 Co4 O14,0.0,8
6570,Li8 Mn2 Co4 O14,0.0,8
6571,Li8 Mn2 Co4 O14,0.0,8
6572,Li8 Mn2 Co4 O14,0.0,8
6573,Li7 Mn2 Co3 O12,0.19059999999999988,1
6574,Li7 Mn2 Co3 O12,0.0,1
6575,Li7 Mn2 Co3 O12,0.1966000000000001,1
6576,Li7 Mn2 Co3 O12,0.20489999999999986,1
6577,Li7 Mn2 Co3 O12,0.1783999999999999,1
6578,Li7 Mn2 Co3 O12,0.17829999999999968,1
6579,Li7 Mn2 Co3 O12,0.038899999999999935,1
6580,Li7 Mn2 Co3 O12,0.16769999999999996,1
6581,Li7 Mn2 Co3 O12,0.0,1
6582,Li7 Mn2 Co3 O12,0.37670000000000003,1
6583,Li7 Mn2 Co3 O12,0.0,1
6584,Li7 Mn2 Co3 O12,0.0,1
6585,Li7 Mn2 Co3 O12,0.0,6
6586,Li7 Mn2 Co3 O12,0.0,6
6587,Li7 Mn2 Co3 O12,0.30909999999999993,8
6588,Li9 Co7 O16,0.0,10
6589,Li9 Mn2 Co5 O16,0.0,2
6590,Li9 Mn2 Co5 O16,0.0,2
6591,Li9 Mn2 Co5 O16,0.15399999999999991,1
6592,Li9 Mn2 Co5 O16,0.01059999999999972,1
6593,Li9 Mn2 Co5 O16,0.17510000000000003,1
6594,Li9 Mn2 Co5 O16,0.2668999999999997,1
6595,Li9 Mn2 Co5 O16,0.11240000000000006,1
6596,Li9 Mn2 Co5 O16,0.1623000000000001,1
6597,Li9 Mn2 Co5 O16,0.07430000000000003,1
6598,Li9 Mn2 Co5 O16,0.016999999999999904,1
6599,Li9 Mn2 Co5 O16,0.3852000000000002,1
6600,Li9 Mn2 Co5 O16,0.14609999999999967,1
6601,Li9 Mn2 Co5 O16,0.3705000000000003,1
6602,Li9 Mn2 Co5 O16,0.0,1
6603,Li9 Mn2 Co5 O16,0.2926000000000002,1
6604,Li9 Mn2 Co5 O16,0.33499999999999996,1
6605,Li9 Mn2 Co5 O16,0.2582,1
6606,Li9 Mn2 Co5 O16,0.21279999999999966,1
6607,Li9 Mn2 Co5 O16,0.04400000000000004,1
6608,Li9 Mn2 Co5 O16,0.27010000000000023,1
6609,Li9 Mn2 Co5 O16,0.20609999999999973,1
6610,Li9 Mn2 Co5 O16,0.1753,1
6611,Li9 Mn2 Co5 O16,0.3660000000000001,1
6612,Li9 Mn2 Co5 O16,0.5044,1
6613,Li9 Mn2 Co5 O16,0.3496999999999999,1
6614,Li9 Mn2 Co5 O16,0.0,1
6615,Li9 Mn2 Co5 O16,0.0,1
6616,Li9 Mn2 Co5 O16,0.12600000000000033,1
6617,Li9 Mn2 Co5 O16,0.0,1
6618,Li9 Mn2 Co5 O16,0.0,12
6619,Mn2 Cr3 Sb3 O16,0.6787999999999998,8
6620,Li2 Cu4 C8 O20,0.29250000000000004,9
6621,Li4 V1 Cr2 Ni3 P6 O24,0.012399999999999967,1
6622,Li4 Nb1 V3 Cr2 P6 O24,0.29280000000000017,1
6623,Li4 Mn2 Cr3 Co3 O16,0.0,1
6624,Li8 V4 O8 F4,0.8826,1
6625,Li2 Cu2 Si8 O19,0.24759999999999982,5
6626,Li13 Co15 O28,0.5693999999999999,2
6627,Fe6 O6 F6,0.0,6
6628,Ga1 Hg1 O2,0.0,166
6629,Li8 Cr4 Co12 O32,0.0,1
6630,Fe10 O16 F4,0.0,31
6631,Fe10 O16 F4,0.0,5
6632,Fe10 O16 F4,0.0,14
6633,Fe10 O16 F4,0.0,1
6634,Fe10 O16 F4,0.0,1
6635,Al2 Cu2 O6,0.21999999999999975,148
6636,Zn1 Cu3 Ni1 Se4,0.0,215
6637,Si34 N2 O68,3.2907,227
6638,Sb8 O16,1.7710999999999997,52
6639,Rb4 Bi12 S20,0.0,58
6640,Nd3 In3 Ni3,0.0,38
6641,Mn3 As3 Rh3,0.0,189
6642,N1 Cl1 O3,1.9601,8
6643,Mn8 Fe8 H32 N8 F48,0.014500000000000013,30
6644,Fe1 H24 C6 I2 O6,4.1398,2
6645,Cr1 Mo1 F6,0.8833,2
6646,Fe16 H20 O34,1.5152999999999999,1
6647,Al1 Cu1 O2,1.8082000000000003,12
6648,Ag1 Hg3,0.0,221
6649,Ca3 Nd1,0.0,225
6650,Ce3 Dy1,0.0,221
6651,Ce3 Sm1,0.0,139
6652,Ga1 Co3,0.0,139
6653,Dy1 Zr1,0.0,187
6654,Ga1 Sn3,0.0,225
6655,Ga6 Ge2,0.0,63
6656,Eu6 Er2,0.0,194
6657,Eu6 Dy2,0.0,194
6658,Eu6 Ho2,0.0,194
6659,Ho1 Bi3,0.0,139
6660,Ho2 Bi6,0.0,194
6661,Lu1 Ga1 Ni2,0.0,225
6662,Mg16 Al12 Co1,0.0,160
6663,Mg16 Al12 F1,0.0,8
6664,Mg16 Al12 Se1,0.0,160
6665,Mg3 Ru1,0.0,225
6666,Mg3 Ru1,0.0,139
6667,Na1 Ca3,0.0,225
6668,Rb1 Rh1 O3,0.0,221
6669,Sn3 Sb1,0.0,221
6670,Sr3 Pb1,0.0,221
6671,Tl1 Au3,0.0,221
6672,Yb1 Y3,0.0,139
6673,Yb1 Ho3,0.0,139
6674,Yb1 As3,0.0,221
6675,Yb3 Cd1,0.0,225
6676,Zr6 Sb2,0.0,194
6677,U4 Co4 Se12,0.0,62
6678,Ta10 Ga4 Sn2,0.0,140
6679,Eu2 Mg4 H10,0.0,129
6680,Tm1 H9 C5 N2 O8,4.4154,5
6681,Na2 U2 Te4 O16,0.0,31
6682,Mg6 Nb1 H16,0.0,225
6683,Pr2 Fe17 H3,0.0,166
6684,Li2 Al2 Si4 H2 O14,0.0759,1
6685,Ba1 Nb6 O17,1.2101,71
6686,Ba4 Te4 O16,2.3895999999999997,14
6687,Li8 Sn8 Sb8,0.0,36
6688,Pr8 Mn2 S14,1.4778000000000002,173
6689,La2 Cl6 O14,2.7458,2
6690,Sr2 P4 H4 O16,0.030399999999999983,2
6691,Cu14 Hg12,0.0,160
6692,K2 Co2 H6 C6 O12,2.8493000000000004,182
6693,Rb8 Mo4 S8 O8,2.4574,14