Index,Composition,bandgap,spgN
21435,Li7 Mn4 Co1 O12,0.019600000000000062,8
21436,Li9 Co7 O16,0.0,12
21437,Li9 Co7 O16,0.0,12
21438,Li9 Mn2 Co5 O16,0.5861000000000001,2
21439,Li9 Mn2 Co5 O16,0.7016,2
21440,Li9 Mn2 Co5 O16,0.6158999999999999,2
21441,Li9 Co7 O16,0.0,12
21442,Na10 Mn4 As2 C8 O32,0.011700000000000044,43
21443,Na10 Mn4 As2 C8 O32,0.0,22
21444,Mn1 V5 P6 O24,0.1629999999999998,146
21445,Mn3 Cu3 P6 O24,0.0,146
21446,Mn6 O8 F4,0.0,14
21447,Li12 Ti12 Si12 O48,0.0,33
21448,Li8 V8 C8 O40,1.6633,1
21449,Li4 Fe4 F12,3.0856000000000003,63
21450,Li4 Fe4 P4 C4 O28,0.0,1
21451,Li6 Fe6 P6 C6 O42,0.024899999999999978,1
21452,Li2 Fe8 B8 O24,1.8719999999999999,1
21453,Li4 Fe4 P4 O16,3.7816,62
21454,Li6 Mn3 V1 P6 O24,0.5096,1
21455,Li12 Mn2 V6 P12 O48,0.2946,15
21456,Li6 Co3 Ni1 P6 O24,0.0,1
21457,Li8 V6 O2 F22,0.1049,1
21458,Li4 Mn5 Cu1 P6 O24,0.18150000000000022,1
21459,Li30 Cr6 Si24 O72,3.4558,5
21460,Li6 V4 F16,0.47350000000000003,14
21461,Li12 Mn4 V4 P12 O48,0.4396,1
21462,Li12 Mn4 V4 P12 O48,0.39880000000000004,1
21463,Li12 Mn4 V4 P12 O48,0.5533000000000001,1
21464,Li12 Mn4 V4 P12 O48,0.2965,5
21465,Li3 Fe8 B8 O24,1.4702,1
21466,Li3 Fe3 W1 O8,1.2451000000000003,2
21467,Li3 Co2 Si2 O8,0.17070000000000007,1
21468,Li6 Fe4 P4 C4 O28,0.0,1
21469,Li4 V4 Cr2 P6 O24,0.6547000000000005,5
21470,Li2 Mn3 Fe1 O8,0.0,160
21471,Li8 Al4 Co4 O16,1.7792000000000001,62
21472,Li12 Mn1 Cr3 P4 C4 O28,2.5460000000000003,6
21473,La8 Nb16 Ag8 O56,1.1115,142
21474,K4 Li8 Fe4 O12,2.0338000000000003,62
21475,Fe1 Pt1 O2,0.0,166
21476,Fe10 O4 F16,0.7482,5
21477,Fe3 Sb1 P4 O16,0.0,6
21478,Fe3 Ni1 Sb2 P6 O24,0.0,146
21479,La12 Cu12 O30,0.0,1
21480,Fe6 O2 F10,0.2612000000000001,38
21481,Cr8 P16 O48,2.8519,14
21482,Co10 O5 F15,0.4513999999999999,38
21483,Tl4 P4 O16,0.5848999999999998,14
21484,Yb8 P8 S32,0.4953000000000001,15
21485,U8 Mo4 O32,0.032999999999999474,1
21486,Sb16 Te16 O72,2.1210000000000004,14
21487,Mn2 H8 C4 O12,2.2628,15
21488,La16 Cu14 O38,0.0,1
21489,Ba2 Y2 Co4 O10,0.0,51
21490,Ba4 Fe9 O20,0.0,12
21491,Ba2 O20,0.0,124
21492,Ac6 Y2,0.0,194
21493,Ba3 Na1,0.0,221
21494,Ba1 Sr1 Eu2,0.0,225
21495,Ba2 Eu6,0.0,194
21496,Ce1 Eu1 Cd2,0.0,225
21497,Ce2 Er6,0.0,194
21498,Eu2 Cu1 Ir1,0.0,225
21499,Ga2 Hg6,0.0,194
21500,Eu1 Tl1 Au2,0.0,225
21501,Er1 Mg5,0.0,187
21502,Gd2 Bi6,0.0,194
21503,Ge2 Au6,0.0,194
21504,La2 Ru1 Au1,0.0,225
21505,Li1 Th2 Tc1,0.0,225
21506,Mg16 Al12 Au1,0.0,160
21507,Mg16 Be1 Al12,0.0,160
21508,Mg16 Np1 Al12,0.0,217
21509,Pm1 Sc3,0.0,139
21510,Sc1 Au3,0.0,225
21511,Sm3 Cd1,0.0,139
21512,Sn2 Pb6,0.0,194
21513,Tc3 Ge1,0.0,225
21514,U6 Al4 Si6,0.0,108
21515,Y6 Mn2 Au10,0.0,148
21516,Pr2 Cr3 Co14,0.0,166
21517,La10 Si6,0.0,193
21518,Pr2 Ga2 Co15,0.0,166
21519,Pr6 Al2 Co2 S14,0.0,4
21520,Pr6 In2 Fe2 S14,0.0,4
21521,K4 Ag4 C4 O12,1.5554999999999999,73
21522,Dy6 Ga2 Fe2 S14,0.28750000000000053,173
21523,Ho8 Rh5 C12,0.0,12
21524,Tb6 Al2 Fe2 S14,0.0,173
21525,V6 H8 N2 O14,1.5814,12
21526,Ir2 S4 Cl6 O14,0.2812999999999999,11
21527,Mg13 Al16,0.0,217
21528,Fe2 H8 C6 O16,1.8405999999999998,2
21529,Ce4 B10 H14 C8 O28,0.0602999999999998,9
21530,Ga8 B12 O32,0.0,64
21531,Tl4 H4 C8 O16,2.8426,14
21532,Yb8 H96 C24 N72,0.006299999999999972,201
21533,Yb4 Fe34,0.0,194
21534,Tm16 Cr8 S32,0.0,29
21535,Mn14 Zn8 Si4 As4 O48,0.2084999999999999,64
21536,Ag4 H96 C36 S12 I4 N24,3.3912,14
21537,Mn20 Fe8 B4 C8,0.0,62
21538,Ga40 Mo8 C1,0.0,148
21539,Al4 Te4 H24 C8 Cl12,3.9823,57
21540,Ni1 H20 Pt1 C4 N4 O12,3.1538,23
21541,Ni4 H64 C16 N40 O8,2.4719,61
21542,Na24 Mn2 Cu4 H32 S16 O64,3.8729,14
21543,Cu12 Mo4 H16 O32,0.0,58
21544,Na8 Zn2 P6 H64 C6 N2 O44,4.4288,2
21545,H24 N8 Cl8,5.4992,205
21546,Pb24 C4 N4 O44,0.1867000000000001,62
21547,Cs8 B48 H120 N24,4.559900000000001,61
21548,Ti16 O32,2.4179999999999997,62
21549,S8 I24 O80,0.04269999999999996,33
21550,Zn6 P8 H40 C8 N4 O24,4.9271,15
21551,V8 P24 H48 O48,2.2631,14
21552,K6 Cr6 As3 O30,0.08700000000000019,144
21553,Te6 As6 H18 N6 F66,2.4567,11
21554,Tb4 Al34,0.0,63
21555,Ca20 Si10 Cl4 O40,0.5299000000000003,15
21556,Si32 C12 Cl80,4.6487,15
21557,Nb8 Ag8 O24,1.7667000000000002,26
21558,Zr4 H36 N12 F28,5.816800000000001,4
21559,Bi2 H12 C6 S12 N6,2.6861,2
21560,Sn2 H20 C6 N2 Cl6,3.704,36
21561,Hf4 W8 O32,3.9211,198
21562,Li2 V12 O26,0.0,12
21563,Mo8 P16 H144 C48 Cl16 O20,1.8671,14
21564,Rb1 Nd1 Nb2 O7,1.3151000000000002,123
21565,K3 Ho1 F6,5.859500000000001,225
21566,Ce1 Cd1 Cu1,0.0,187
21567,Li1 Ca2 Ge1,0.0,225
21568,Sr4 Sn1 Pb1 O8,1.5345999999999997,123
21569,Rb1 Pr1 W2 O8,4.7225,164
21570,Nd4 S7,0.0,111
21571,P2 H34 C8 S4 N16 O8,3.0698,2
21572,Na6 C4 O12,0.2771,15
21573,Na2 H20 C12 N14 O14,3.7872000000000003,2
21574,Li3 Ti3 Fe3 F18,0.19930000000000003,150
21575,La13 Al12 Si18 N36 O18,0.0,217
21576,H12 C12 S12 N12,2.171,2
21577,Cs2 Yb2 Zn2 Te6,0.0,63
21578,Cr7 Te8,0.0,12
21579,Co4 As4 O16,0.9111,62
21580,Ce4 Lu4 O12,0.0,62
21581,Co2 Cu4 Ge2 Se8,0.0,31
21582,Ba2 Ca1 Sm2 Ti3 Cu2 O14,0.0,123
21583,B24 N12 Cl36,4.3793999999999995,92
21584,Ag4 H16 C8 S8 N12,2.89,14
21585,Ba4 Cu4 H48 C16 O56,0.9555,15
21586,Zr4 Ti4 Pt4,0.0,38
21587,Zr4 V4 Ni4,0.0,38
21588,Zr1 Al1 Au2,0.0,123
21589,Zr4 Fe4 Re4,0.0,38
21590,Yb2 Ti2 Cd2 Sb2 O14,0.0,74
21591,Yb1 Cu5 S4,0.0,12
21592,Y2 Si2 Pd2,0.0,12
21593,Y1 Fe6 Co5 Re1,0.0,44
21594,Zn8 In4 O14,0.6581999999999999,194
21595,Y2 U1 Se3,0.0,164
21596,Y4 Al4 Co4,0.0,38
21597,Y1 V2 Co10,0.0,71
21598,U4 Al4 Fe4,0.0,38
21599,V1 Fe3 Si4,0.0,146
21600,U2 Al2 Au2,0.0,12
21601,Tm4 Cd1 S7,1.2851000000000004,8
21602,Tl1 Co1 Ni1 S2,0.0,119
21603,Ti1 W1 C2,0.0,166
21604,V1 Fe2 S4,0.0,8
21605,Ti2 Nb2 Ga2 O12,1.577,102
21606,U2 Cu1 Si3,0.0,25
21607,Ti1 Nb1 Bi3 O9,1.6516000000000002,107
21608,Ti1 In1 Pt2,0.0,123
21609,Ti1 Co1 Sn1,0.0,216
21610,Tm2 Ti12 Cu9 O36,0.31159999999999943,147
21611,Ti2 Fe1 Cu1,0.0,123
21612,Ti2 Fe4 O8,1.5377999999999998,36
21613,Tb1 Pr1 Fe4,0.0,216
21614,Ta1 Nb1 Ag2 O6,1.3546000000000002,123
21615,Yb9 In18 S36,1.1803,1
21616,Ta2 Ti2 Cu3 O12,0.0,12
21617,Ta3 Mn8 Si1,0.0,156
21618,Sr1 Ca4 Fe5 O10,0.16129999999999978,123
21619,Sr1 Fe5 Bi4 O15,0.0,1
21620,Sr1 Cr1 H1 O2,0.7746000000000004,123
21621,Sr3 Fe1 Co1 Cl2 O4,0.30489999999999995,107
21622,Sr1 Eu3 Ni2 O8,0.0,38
21623,Sr2 Nb1 Co1 O6,0.0,225
21624,Sr4 La2 Ti4 Nb6 O30,1.5551,55
21625,Sr2 Ca4 Lu20 O36,2.8967,1
21626,Sr2 Gd1 Cr1 Cu2 O8,0.0,38
21627,Sm2 Ge2 Pt2,0.0,12
21628,Sm1 Ga3 Ni1,0.0,119
21629,Si2 Ni6 Mo4,0.0,38
21630,Re1 Mo3,0.0,65
21631,Re1 W4,0.0,69
21632,Sb1 Pb1 Br1 O2,1.4363000000000001,107
21633,Rb12 Sn2 Bi6 O1,0.2652000000000001,164
21634,Pr2 Fe1 Co3,0.0,166
21635,Pr10 S4 N6 Cl4,0.6945999999999994,12
21636,Ni12 S10,0.0,36
21637,Pr1 Co10 Mo2,0.0,71
21638,Nd1 Ti1 Fe11 C1,0.0,44
21639,P2 H18 C2 N8 O8,4.9716000000000005,1
21640,Nb6 Al1 Ge1,0.0,200
21641,Nd2 Ga5 Au3,0.0,115
21642,Nb2 Cu2 Se4,0.0,186
21643,Nb12 Al3 Ge1,0.0,47
21644,Na4 Fe4 Ru4 O16,0.0,62
21645,Mn5 Sb4,0.0,187
21646,Mo2 C1,0.0,164
21647,Mn2 Zn2 S8,0.0,14
21648,Mo6 Pb1 Se4 S4,0.0,1
21649,Mn3 Si6 Pd9,0.0,6
21650,Mn1 Cu1 Ni1 Sn1,0.0,216
21651,Mn1 Fe3 Si8,0.0,123
21652,Mn1 Cr1,0.0,65
21653,Mn3 Fe9 P4,0.0,1
21654,Mg3 In1,0.0,166
21655,Li1 Nd1 Se2,0.07570000000000032,123
21656,Li1 B1 H4,6.209,216
21657,Li1 V1 W1 O6,2.7355,8
21658,Li4 Zr3 O8,3.1430000000000002,21
21659,La1 Nb2 Ag1 O7,1.1594000000000002,119
21660,La3 Nd1 Cu2 O8,0.0055000000000005045,8
21661,La4 U2 Te10,0.0,5
21662,La4 Th2 Ta2 Cl6 O12,4.0516000000000005,6
21663,K2 La2 C2 O8,3.7205999999999997,59
21664,Ho2 Mn2 Fe2,0.0,74
21665,Ho1 Ag1 Sn1,0.0,187
21666,Hg1 Au4,0.0,166
21667,Ho2 Fe1 Si4,0.0,38
21668,Ho4 Sc2 Nb2 O14,2.0357,74
21669,In2 Ag3 Sb1 Se6,0.0,164
21670,Hf2 Se3 S3,0.5904000000000003,6
21671,Ge4 Mo9 W3,0.0,6
21672,Ga1 Ni3 As1,0.0,187
21673,Fe1 Re1 Pb2 O6,0.0,79
21674,Gd1 Al1 Ni4,0.0,38
21675,Fe7 Si1 O10,0.7177000000000007,8
21676,Dy1 Al1 Co4,0.0,187
21677,Er2 Fe3 Cu1,0.0,166
21678,Cu1 Rh1,0.0,166
21679,Dy4 Cu7 Sn11,0.0,99
21680,Cr8 Fe2 Cu1 Ni1 S16,0.0,160
21681,Cs2 Na6 Al6 Ge7 O30,0.2584,143
21682,Cr8 Fe3 Ni1 S16,0.0,160
21683,Co3 Ge2,0.0,187
21684,Co12 Ge4 C1,0.0,123
21685,Ce1 Cu1 Pt4,0.0,187
21686,Cd1 Fe4 Ni1 O8,1.479,160
21687,Cd2 Ga1 Ag1 Se4,0.06400000000000006,6
21688,Ca2 La2 Ga2 Cu2 O10,0.0,8
21689,Ca4 Be4 P4 O18 F2,0.7269999999999999,7
21690,Ba1 Nd1 Fe1 Co1 O6,0.0,99
21691,Ba3 Pr3 Cu6 O15,0.0,25
21692,Ba1 La3 Co4 O12,0.0,166
21693,Ba4 Y2 Fe1 Cu5 O14,0.0,12
21694,Ba4 Mn2 Ag2 As4 O17,1.0074999999999998,1
21695,Ba4 Ti1 Al3 P4 O20 F4,0.0,2
21696,Ba2 Nb1 Co1 O6,1.4402999999999997,225
21697,Ba2 Ti5 Bi4 O18,1.3680000000000003,139
21698,Al4 Cu15,0.0,123
21699,Ag1 Te3,0.0,123
21700,Ag2 Hg1,0.0,164
21701,As8 Se4 S8,1.1845,14
21702,Mo6 Pt2,0.0,223
21703,Li1 Sb1 Au1,0.0,216
21704,B6 Er1,0.0,221
21705,Sr2 Er1 Re1 O6,0.0,225
21706,Al40 Co4 Ce2,0.0,227
21707,F8 Mg4,6.7193,205
21708,O20 Cu4 Sr4 Dy8,0.0,62
21709,Sr4 Ho8 Cu4 O20,0.0,62
21710,Ge6 Nb10,0.0,193
21711,O8 Na4 Fe2,0.999,63
21712,O48 Si12 V8 Mn12,0.0,230
21713,Cs2 Cu1 Pb1 N6 O12,0.0,69
21714,Cu20 Sb6,0.0,176
21715,B1 Pd3 Eu1,0.16059999999999963,221
21716,O12 Cu4 Te4,0.0,62
21717,O3 Pu2,0.0,164
21718,V1 Co2 Sn1,0.0,225
21719,Mo6 S8,0.0,148
21720,Rb2 Cu1 Pb1 N6 O12,0.0,69
21721,Bi2,0.0,12
21722,H40 B40 K8,4.6289,14
21723,Li1 O8 Co1 W2,1.0885000000000002,1
21724,Li4 O48 P12 Bi8,0.27790000000000004,4
21725,B1 O3 Ag3,0.0,155
21726,H4 O4 Cd2,0.9847,8
21727,O30 Ti8 La10,0.0,165
21728,C2 Si6 Cl16,4.5168,2
21729,Ca3 Hg33,0.0,221
21730,Mo6 Sn2,0.0,223
21731,Er4 Fe24 Sn24,0.0,63
21732,Li12 O32 P8 Cr4,1.9816000000000003,4
21733,Li2 O24 P6 Mn4,0.0,12
21734,Li4 O28 P8 Ni4,0.018100000000000005,14
21735,Cu8 O7,0.0,5
21736,Cu1 Fe5 O8,0.15280000000000005,216
21737,H4 O12 Ta4,2.7443,141
21738,Li3 Nb1 O4,1.0370999999999997,139
21739,Al4 Fe2 O8,2.3609,74
21740,Ba1 Li1 O6 Pr1 Te1,3.1399,216
21741,O36 P12 Ni4,0.44389999999999996,19
21742,Li12 O48 P12 Ni8,0.0,14
21743,Li12 O48 P12 Ni8,0.0,2
21744,Cr16 P12 O48,0.5987999999999998,62
21745,Tl4 Br12 Fe4,0.0,62
21746,Co8 Nb12 Si4,0.0,227
21747,O26 Cl2 Co10 Ba10,0.02560000000000029,194
21748,Mn1 Ni2 Sb1,0.0,225
21749,Ga23 N5 O27,1.1327000000000003,1
21750,Al6 N45 Nd1 O3 Si30,2.9631000000000007,1
21751,Li2 O24 P8 Co2,0.9577000000000001,4
21752,O16 P4 Mn4,0.36790000000000006,33
21753,O14 P4 Co2,0.0,2
21754,Er4 I5,0.0,12
21755,Cr4 Mo8 S16,0.0,9
21756,Cs4 C4 H4 O8,4.4082,57
21757,Co4 Li4 O16 Si4,1.3978,33
21758,As2 S6 N4 F12,0.5929,2
21759,Ho4 H64 C8 S8 N4 O48,5.4777,62
21760,Na8 Ca4 Si4 O16,3.3360999999999996,198
21761,Cs2 Li6 F8,6.7384,12
21762,H32 C12 S8,3.9735,14
21763,Li4 C2 O6,3.7449000000000003,193
21764,Si24 O48,5.6144,223
21765,Na2 Ca3 Ta2 O9,3.7127999999999997,155
21766,K1 Sb4 F13,4.7449,87
21767,H40 C8 S8 N16 Cl8,4.3408,92
21768,Sb8 S4 N4 F44,3.5649,14
21769,H28 C6 N2 F10,7.3363,2
21770,Nb2 Co2 O8,1.6468,12
21771,As8 Se8 S16 N16 Cl8 F48,2.2262,14
21772,Ba2 Y2 Mn4 O12,0.0,1
21773,Cr8 Hg24 O36,1.8298,19
21774,Tb8 Zn10 Ge12,0.0,36
21775,La6 Mn2 Bi10,0.0,193
21776,In2 Si4 P2 H48 C16,3.7122,2
21777,Nb6 H24 C8 N2 Cl18,0.4908,164
21778,Zr4 Ru8,0.0,194
21779,Ba20 Fe36 S72,0.0,130
21780,Co2 P8 O24,0.4695,15
21781,Cd4 H32 C8 Br12 N4,3.3781,14
21782,Si8 H100 C40 N4,4.6311,14
21783,Zn2 In4 S8,0.07669999999999977,160
21784,Cu8 Bi4 P4 O24,0.0,62
21785,Ti1 In1 Au2,0.0,225
21786,Sn4 Hg8 S8 Br8,2.3254,14
21787,H12 N4 O16,3.3335,33
21788,Co1 H2 O2,2.3773,1
21789,Re2 H6 O10,1.4014,1
21790,Sn2 Se2,0.4664999999999999,63
21791,Sb2,0.0,2
21792,H8 O4,5.3268,20
21793,Ce2 Cu2 S2 O2,0.0,129
21794,Rb2 Ba1 Pt2 C8 N8,1.6897,123
21795,Fe2 Cu1 As2 H2 O10,0.7587000000000002,2
21796,Li10 V2 P4 O18,0.0034999999999998366,140
21797,V2 P4 Cl14 O8,2.0934,2
21798,La12 Cu12 O30,0.0,15
21799,Nd12 Cu6 O25,0.0,12
21800,Sr20 Cu10 Bi20 O58,0.0,1
21801,Li2 Sb4 P10 O36,0.1987000000000001,2
21802,Yb4 Li12 Cl24,0.5603,33
21803,La12 Cu6 O24,0.0,4
21804,Ce4 Dy4 O14,1.6279,51
21805,Ba3 Bi2 F12,5.1102,1
21806,Ce3 Dy2 O9,1.8935999999999997,1
21807,Dy4 Pb2 S8,2.0230999999999995,122
21808,Ba2 C2 O6,4.1101,1
21809,Fe6 Co6 As6,0.0,1
21810,Ni2 P2 S6,0.0,12
21811,U4 Be2 C5,0.0,12
21812,Li9 Ru10 O30,0.0,2
21813,Dy6 Nb2 O14,2.816,1
21814,Ba3 La3 Ti4 Nb1 O18,2.4082999999999997,160
21815,K4 H2 S4 N2 O12,4.5359,7
21816,K12 Ti6 Ge18 O54,2.8470999999999997,5
21817,K16 Ag8 C24 S24 N24,3.206,14
21818,Ce12 Nb4 S12 O16,0.0,55
21819,Tc12 Bi2 O36,0.0,1
21820,Y1 Al6 Si30 N45 O3,2.913000000000001,1
21821,Fe4 O4 F4,1.6921,92
21822,Be4 H32 N8 F16,6.2707,62
21823,V12 Cu24 Bi12 O72,0.0,14
21824,V4 P8 O28,1.3524,1
21825,Ba3 La1 In1 W2 O12,3.0435,160
21826,Mn6 F24,0.10239999999999982,167
21827,Co23 O32,0.3022999999999998,1
21828,Ti8 Fe35 O64,0.8245999999999998,1
21829,Sb2 H64 C16 N8 Cl14,3.5129,18
21830,Fe12 O16,0.6085000000000003,7
21831,Na4 H16 C4 S4 N4 O8,3.9944,15
21832,Na2 Si2 S14 Y6,2.1984,173
21833,As4 Nb5 Pd4,0.0,87
21834,Al4 H24 Se6 O30,4.6404,159
21835,Li3 La8 Ti9 Cr3 O36,1.2976,1
21836,Co4 P12 H64 N16 O44,0.9217000000000001,14
21837,Li4 Ag4 F8,1.7691000000000001,2
21838,Li2 Ag4 F8,0.0,227
21839,Li12 Bi4 S12,2.2692000000000005,14
21840,Li4 Ti4 Si4 O16,0.0,4
21841,Y6 I14 O2,2.5815,8
21842,Cs4 Sr4 O6,2.1019,14
21843,Sb8 O8 F8,3.5531000000000006,114
21844,Tb4 Lu4 O12,4.6811,62
21845,Cs4 Rb4 O4,1.2535999999999998,62
21846,Al4 O6,5.667699999999999,148
21847,U8 O14,0.0,1
21848,Li2 Sb2 C2 S2 O14,3.9763999999999995,4
21849,Ce3 Y4 O12,1.4851,8
21850,Y4 Te2 O12,2.5391999999999997,136
21851,Ca2 Pt6 O8,0.0,223
21852,Sm4 Ho4 O12,4.5947,62
21853,Li4 Ti2 B4 O12,2.9039,2
21854,Li4 Cu2 Sn2 O8,0.30189999999999984,15
21855,Ba2 Ca2 I8,3.9106,88
21856,U1 Nb6 O16,0.0,5
21857,Te2 P2 H2 O10,2.1732,2
21858,Mg1 Cu2 Si4 O12,0.8613,2
21859,Li2 Sn5 P4 O16,2.4523,2
21860,Li18 Si12 Bi6 O42,3.7837000000000005,173
21861,Li4 Sn4 P12 O36,4.0600000000000005,19
21862,Li9 Sb9 P12 O48,3.6363000000000003,1
21863,Li8 Cu4 Si4 O16,0.0,62
21864,Li8 Cu4 Si4 O16,0.07820000000000027,14
21865,Li6 Sb4 P6 O24,3.6068,15
21866,Li5 Ti1 Si2 O8,0.5455000000000005,5
21867,P6 N6 O6,3.9940999999999995,9
21868,Li8 Cu4 F20,0.8027000000000002,14
21869,Li4 Ag8 F24,0.12200000000000011,14
21870,Na6 Sb6 O18,1.9295999999999998,2
21871,Na11 Ti8 P12 O48,0.0,1
21872,Li10 Cu2 P6 O22,0.34350000000000014,2
21873,Li4 Fe2 P2 O10,2.3612,129
21874,Li2 Ni1 P4 O12,4.5274,5
21875,Mn1 Co1 O4,0.0,65
21876,Li4 Co2 Ni4 O12,0.2599999999999998,1
21877,Li2 Cr3 Co1 O8,0.5895999999999999,160
21878,Li3 Co3 P3 O12,2.8138,180
21879,Li4 V2 Co6 O16,0.38180000000000014,186
21880,Li4 Fe2 Co6 O16,0.42969999999999997,9
21881,Li6 Mn3 Cu1 P6 O24,0.1927000000000001,1
21882,Li8 Fe4 C4 O20,0.03269999999999995,55
21883,Li4 Mn8 C8 O32,0.42290000000000005,14
21884,Rb2 Al2 H16 N8,2.5643000000000002,85
21885,Li2 Cu2 F7,0.0,8
21886,Li12 Mn2 O9,0.9503,1
21887,Li4 Fe4 P12 O36,3.9807999999999995,19
21888,Li12 Mn12 O32,0.0,5
21889,Li1 Mn3 P4 O16,0.0,6
21890,Li1 Fe1 P3 O9,3.4388000000000005,146
21891,Li4 Fe4 Si4 O16,2.5311999999999997,4
21892,Li2 Fe4 P10 O32,2.6435000000000004,7
21893,Li4 Fe4 P8 O28,1.9942000000000002,15
21894,Li6 Ti3 Fe6 O18,1.7930000000000001,12
21895,Li4 Fe3 Ni2 O10,0.31010000000000026,1
21896,Li4 Mn4 P8 O28,0.8826,14
21897,Li12 V4 F20,2.585,14
21898,Li9 Fe3 P6 O24,2.5027999999999997,146
21899,Li8 Mn4 P16 O48,3.8417,14
21900,Li4 Mn2 Nb3 V3 O16,0.0,8
21901,Li4 Co4 Si4 O16,1.3740999999999999,14
21902,Li4 Fe4 P16 O48,2.4753,14
21903,Fe12 O12 F12,0.7532999999999999,6
21904,Li18 Mn18 F54,3.2519,2
21905,Fe18 O18 F18,0.0,6
21906,Li4 Mn8 C8 O32,0.46920000000000006,14
21907,Fe8 O4 F12,1.4915,38
21908,Fe12 O12 F12,0.5248999999999997,6
21909,Fe12 O12 F12,0.4964999999999997,6
21910,Fe12 O12 F12,0.25890000000000013,6
21911,Ni6 O2 F10,0.7583,1
21912,Mn8 O13 F3,0.0,1
21913,Co6 O2 F10,0.7453,8
21914,Li2 Co2 Si2 O8,1.5904,7
21915,Li4 Ti3 Mn2 Co3 O16,0.23399999999999999,8
21916,Li4 Co20 O32,0.0,212
21917,Li4 P16 W4 O48,3.8888000000000003,14
21918,Li3 Fe3 Co1 O8,0.0,8
21919,Li16 Mn2 O8 F4,2.6852,2
21920,Li4 V2 P6 O20,2.2043,15
21921,Li4 P4 W2 O16,2.7918000000000003,7
21922,Li8 Co8 Si8 O32,1.3102,29
21923,Li4 V4 P16 O48,2.5341,14
21924,Li8 Co8 Si8 O32,1.1943,29
21925,Li4 Fe4 P12 O36,3.8561999999999994,57
21926,V2 Cr2 O8,1.8334,74
21927,Li3 Fe3 O8,0.0,12
21928,Li12 Mn8 P8 O32 F12,0.0,58
21929,Li2 Fe2 P2 O8,3.5158,43
21930,Mn2 P6 O18,1.0864,2
21931,K2 V12 O28,1.0927,2
21932,Co6 O4 F8,0.4739,5
21933,Li6 Co3 Ni5 O16,0.0,1
21934,Na12 V4 O12,0.18710000000000004,14
21935,Mn6 O8 F4,0.0,12
21936,V6 O2 F22,1.9062000000000001,4
21937,Li6 Fe2 Ni6 O16,0.0,1
21938,Mn12 O7 F17,0.2964,1
21939,Li8 V2 O8 F2,3.8853,4
21940,Li1 Co1 Cu1 O4,0.0,10
21941,Li6 V4 O8 F4,0.8582999999999998,2
21942,Li7 V1 O5 F1,1.9464,1
21943,Li4 Cr2 P2 O8 F2,2.2296,1
21944,Li7 Fe8 B8 O24,1.5200999999999998,1
21945,Li3 Fe8 B8 O24,1.4078000000000002,1
21946,Mn12 O7 F17,0.0,1
21947,Li3 Fe8 B8 O24,1.4989,1
21948,Li3 Fe8 B8 O24,1.6831000000000003,1
21949,Li12 Fe4 O8 F4,2.4918,58
21950,Li3 Fe8 B8 O24,1.496,1
21951,Li4 V2 O4 F4,0.0,160
21952,Li9 Cr5 O12,1.4592,12
21953,Fe2 O1 F3,1.5097,38
21954,Li4 V2 O4 F2,0.0,12
21955,Li2 Fe8 B8 O24,1.7156,1
21956,Li4 Cr3 Co2 Sb3 O16,0.6461999999999999,8
21957,Li7 V1 O5 F1,1.9844,1
21958,Li4 Ni8 O9 F7,0.1059000000000001,1
21959,Li24 Mn12 F60,2.2819,14
21960,Li2 Fe8 B8 O24,1.6113000000000002,1
21961,Li9 Fe5 O12,0.27900000000000036,1
21962,Li2 V4 O8,0.8302999999999998,11
21963,Li3 Fe3 O1 F7,2.7048,6
21964,Li12 V4 O12 F4,1.3617,2
21965,Li8 V16 P16 O60,2.114,15
21966,Li8 V8 O8 F16,1.0644000000000002,1
21967,Li8 V8 F32,2.0189,62
21968,Li2 Si4 Ni2 O12,1.2855,21
21969,Li8 Ni4 O8 F4,0.05439999999999978,5
21970,Li7 Co1 O1 F7,2.267,25
21971,Na2 Mn20 O40,0.0,88
21972,Li4 Co8 O2 F16,2.2384,9
21973,V6 O10 F6,0.8623000000000001,9
21974,Li1 Ni4 O4 F1,2.2405999999999997,139
21975,Li4 Mn4 P4 O16,3.4276,14
21976,Li6 Ti2 Mn6 O16,0.9693,9
21977,Mn4 F10,0.0,15
21978,Li6 V4 O8 F4,0.8773,2
21979,Li8 Fe8 P8 O32,3.5322000000000005,14
21980,Nb4 O8 F4,2.8979999999999997,19
21981,Li6 Si6 Bi6 O24,3.3611999999999997,146
21982,Li4 Fe4 P4 O16,3.3829,33
21983,Li8 V4 O4 F16,2.6196,19
21984,Mn4 F10,0.0,15
21985,Li2 Mn4 F14,1.6745999999999999,2
21986,Si6 Bi9 O26,0.0,1
21987,Co4 P4 O16,0.9736,7
21988,Li4 Cr2 Co3 Sb3 O16,0.54,1
21989,Li2 Fe4 P4 O16,2.1484,7
21990,Li2 Fe4 P4 O16,1.2584,7
21991,Li4 Mn2 V2 O8,0.7517,15
21992,Li6 Mn1 Cr1 P2 C2 O14,2.3308000000000004,6
21993,Li20 Sb4 S4,1.1225,4
21994,Li3 Mn4 P6 O24,0.0,2
21995,Li2 Cr4 P4 O20,0.0807,1
21996,Li6 Mn4 Fe2 B8 O24,1.3956,7
21997,Li12 Cr3 Fe1 P4 C4 O28,2.4471,6
21998,K8 Li12 Cr4 O16,1.2522000000000002,14
21999,Ni4 P12 O36,1.0502999999999998,19
22000,Li12 V3 Co1 P4 C4 O28,0.8535999999999997,6
22001,Li4 Fe2 Ni3 O10,0.0,2
22002,Li4 Ni4 P4 O16,3.3388000000000004,60
22003,Li5 Cr17 Si2 O32,1.0661,1
22004,Mn4 O4 F4,0.3766999999999998,14
22005,Mn1 C2 O6,1.1769,148
22006,V4 S4 O16 F12,0.9282999999999999,60
22007,Na8 Sn4 C8 S2 O32,1.1476,1
22008,Ba8 Y4 F28,6.5535,4
22009,Sr4 La4 Cl20,3.4167000000000005,57
22010,Sr8 Ca4 I24,3.5507999999999997,14
22011,Li2 Bi8 B6 O22,3.496,15
22012,Li32 B8 O28,5.509600000000001,14
22013,Ba12 Y8 Cl48,4.6195,14
22014,Li14 Nb2 S12,2.1263,7
22015,Li16 Bi2 O12,0.0,185
22016,Li28 Nb4 S24,2.3266,198
22017,Li8 Bi6 O16,0.0,11
22018,Bi12 B4 O24,2.1160000000000005,62
22019,Ho6 Re2 O14,0.0,63
22020,V2 O2 F2,2.7095000000000002,166
22021,Li4 Al2 Co2 O8,1.772,31
22022,Li4 Al2 Co2 O8,1.6394,20
22023,Li4 Co4 B4 O12,2.5816999999999997,14
22024,Li6 V6 B4 O20,0.0,1
22025,Li4 Ti2 V3 Ni3 O16,1.3155000000000001,1
22026,Li12 V4 B8 O24,2.0244,14
22027,Li4 V2 Si2 C2 O14,1.8635000000000002,4
22028,Li6 Al6 V6 O24,0.32609999999999983,146
22029,Li8 Al4 Co4 O16,1.6087,33
22030,La4 Mg2 I16,2.1115000000000004,15
22031,Li6 Fe10 O18,1.6819000000000002,15
22032,Li1 V1 Te2 W1 O12,1.2441,1
22033,Li8 Cr8 O28,1.5210000000000001,64
22034,Li4 Mn2 Co3 Sb3 O16,0.21760000000000002,1
22035,Mg4 Co8 O16,0.06289999999999996,59
22036,Li2 Fe2 As2 C2 O14,0.04520000000000002,4
22037,Li4 Ti2 Mn4 O10,0.6734,5
22038,Li3 V3 Fe1 O8,0.9312,2
22039,Li4 V1 Cr1 Te2 O12,0.75,1
22040,Na8 Co4 P2 C8 O32,0.0,70
22041,Li6 Mn1 Sn3 P6 O24,2.5692,1
22042,Li9 Mn9 B9 O27,2.1548,1
22043,Li4 Nb1 Co3 O8,0.1905000000000001,12
22044,Li4 Fe4 P4 C4 O28,0.0,1
22045,Li4 Ti1 Co5 O12,0.0,12
22046,Li2 Mn1 V1 O4,0.0,10
22047,Li4 Fe1 Te1 W2 O12,0.0,1
22048,Li2 Cr3 Co1 O8,0.0,166
22049,Li6 Si2 Ni2 O10,0.7130000000000001,2
22050,Ba8 Y8 I40,2.9223000000000003,14