Index,Composition,bandgap,spgN
31190,Li9 Mn7 Cr12 O48,0.2643000000000001,1
31191,Li8 V6 P16 O58,0.8246,1
31192,Li4 Mn4 P4 O16,3.4022,7
31193,Pu2 P6,0.0,194
31194,Na8 Li8 Co4 O16,0.6292,1
31195,Li6 V2 B4 O12,2.5749,2
31196,Li2 Ni8 P6 O24,2.4808000000000003,9
31197,Li4 Ni16 P12 O48,3.4440999999999997,58
31198,Sc6 Tc2,0.0,194
31199,Sc1 Re1 Tc2,0.0,225
31200,Sc1 Zn2 Pt1,0.0,225
31201,Ga1 Cu1 Pt2,0.0,225
31202,Li6 V6 P16 O58,1.0015,1
31203,Li8 V6 P16 O58,0.8317000000000001,1
31204,Li6 V6 P16 O58,0.8795,1
31205,Ba10 V10 O28,0.7356000000000003,1
31206,Nd2 Ir1 Rh1,0.0,225
31207,Tm1 Zr1 Os2,0.0,225
31208,Dy2 Ag2 H4 C4 S2 O18,2.9366,12
31209,Li4 Ag8 F16,0.0,3
31210,Sm1 H3,0.0,225
31211,Mn7 F16,1.4003,148
31212,Li6 Ti1 Fe5 O12,1.5808999999999997,1
31213,Li3 Cr4 P6 O24,0.04479999999999995,1
31214,S2 Sn2,1.8201,39
31215,Na12 S8 Fe2,0.0,186
31216,K8 Fe8 S12 O48,0.6839000000000004,198
31217,Zn3 Co1,0.0,139
31218,Li2 Mg1 Ge1,0.0,225
31219,K1 Rb3,0.0,139
31220,Os1 N2,0.0,191
31221,Nd2 Ag1 Ir1,0.0,225
31222,Sm1 I1,0.0,187
31223,Yb3 Mg1,0.0,221
31224,Yb3 Mg1,0.0,225
31225,Rb1 Ag1 O2,0.6655,47
31226,Cs1 Na7 Ta8 O24,0.0,221
31227,Tl1 Ag1 Br3,0.0,1
31228,As4 Mo4,0.0,62
31229,Ti4 Zn2 S8,0.0,141
31230,Mn4 Cu3 O12,0.0,204
31231,Cr2 F10,1.1817000000000002,1
31232,Ba4 Cu2 Sn4 F28,1.0589,1
31233,Zn4 Cr4 F20,3.0903,14
31234,V4 Zn4 F20,2.428,14
31235,Y6 Co6 O18,0.0,185
31236,Mo4 F20,1.9257,14
31237,Ca4 Ni2 Sb2 O12,0.10110000000000019,11
31238,Ca6 Cr4 Si8 O28,2.2836,15
31239,Zn2 Cu4 O8,0.0,141
31240,V4 Zn4 Ni4 P8 O36,1.9696000000000002,62
31241,Mg2 Cr2 Ge4 O12,0.6151999999999997,15
31242,Y4 Zn2 S8,0.6698,227
31243,Li2 Mn3 O6,0.016499999999999737,12
31244,Ca4 As2,0.0,139
31245,B4 Mn3,0.0,71
31246,Mg6 Cd1 Ga1,0.0,38
31247,Cr1 Fe3,0.0,221
31248,Cr1 N1,0.0,216
31249,Ca2 Bi2 Au2,0.0,186
31250,Er2 S4,0.0,129
31251,Pr2 Pb2 Au2,0.0,194
31252,Re4 N2,0.0,194
31253,Ce3 Zr5 O16,1.7776,21
31254,Ce1 Zr7 O16,2.1228000000000002,115
31255,Li16 B48 O80,6.1396999999999995,62
31256,Te2 W2 Se2,0.5229999999999999,156
31257,Na8 Zn8 Se12,1.4089999999999998,96
31258,La1 Ge5,0.0,71
31259,Ce1 Al3 Pt2,0.0,191
31260,Lu1 U2 S3 O2,0.0,139
31261,Tb2 Fe2 Si4,0.0,63