Index,Composition,bandgap,spgN
26926,Fe18 O18 F18,1.3428,6
26927,Li16 Mn8 F32,3.9851,33
26928,Li4 Mn6 F16,2.8558999999999997,14
26929,Fe12 O12 F12,1.2588000000000001,6
26930,Co10 O5 F15,0.6714,38
26931,Li3 Cr3 Co1 O8,0.5210999999999997,12
26932,Mn10 Fe8 O24,0.32250000000000023,1
26933,Mn6 O10 F2,0.0,31
26934,Co8 O4 F12,0.6955,63
26935,Li32 Co8 O32,0.0,7
26936,Li4 V2 O4 F2,1.3732000000000002,12
26937,Fe4 O1 F7,0.8345,8
26938,Fe18 O18 F18,1.3161,6
26939,Li8 P4 W4 O24,2.8365,15
26940,Li2 V3 P9 O28,1.9376000000000002,2
26941,Li4 P8 W4 O32,3.6562,19
26942,V1 Fe3 Cu2 P6 O24,0.0,146
26943,Li2 V1 P2 O8,1.3999,2
26944,Li4 Mn14 O24,0.6755,4
26945,La8 Mn8 O22,0.2237,7
26946,Li6 Fe6 Si6 O24,2.2198,148
26947,Li9 Ti3 Mn9 O24,1.1442999999999999,2
26948,K8 Li3 Fe4 O16,0.058899999999999994,1
26949,Li8 Co5 O10,0.0383,2
26950,Li3 Mn5 O10,0.6205000000000003,2
26951,Li4 Mn1 F7,0.0,216
26952,Li20 Mn12 F56,1.3600999999999999,33
26953,Li8 Ni10 O20,0.10650000000000004,2
26954,Li4 Co8 O4 F12,1.8332000000000002,44
26955,V6 O6 F6,0.9899999999999998,2
26956,Mn6 O5 F7,0.0,1
26957,V6 O12 F6,1.6388,1
26958,Li6 V6 P16 O58,1.1659000000000002,1
26959,Li10 Ni4 P6 O24,4.0388,2
26960,Li4 Co2 O2 F4,0.1825000000000001,129
26961,Li20 Mn4 Cr12 O32,2.2576,4
26962,Mn6 O5 F7,0.14169999999999994,1
26963,Li6 V2 Fe4 O12,1.1707999999999998,36
26964,Na7 W8 O24,0.0,12
26965,Li10 Cr6 Ni2 O16,2.9590000000000005,36
26966,Li4 Co3 Ni3 W2 O16,0.0019000000000000128,8
26967,Li2 Fe2 Si2 O8,2.9554,7
26968,Mn10 O15 F5,0.0,38
26969,Li4 Mn3 Fe3 W2 O16,0.0,1
26970,Li3 Co2 Si2 O8,0.23029999999999995,1
26971,Li4 Fe8 B8 O24,1.8923999999999999,7
26972,Li4 Fe8 B8 O24,1.7331999999999999,1
26973,Li4 Fe8 B8 O24,1.3886000000000003,1
26974,Li4 Fe8 B8 O24,1.7605000000000002,1
26975,Li4 Fe8 B8 O24,1.2590999999999999,1
26976,Li4 Fe8 B8 O24,1.4678000000000002,1
26977,Li4 Fe8 B8 O24,1.4351,1
26978,Mn12 O5 F19,0.0,1
26979,Li4 Fe8 B8 O24,1.2226,1
26980,Li4 Fe8 B8 O24,1.6821,1
26981,Li4 Fe8 B8 O24,1.4858999999999998,1
26982,Li4 Fe8 B8 O24,1.696,1
26983,Li4 Fe8 B8 O24,1.5956000000000001,1
26984,Li7 V4 O11 F1,1.5574999999999997,1
26985,Li4 Fe8 B8 O24,1.7641,1
26986,Li2 Mn2 F8,2.7813999999999997,1
26987,Ni36 P24 O96,3.1207999999999996,14
26988,Li6 Mn1 V3 P6 O24,0.27859999999999996,1
26989,Li4 Fe8 B8 O24,1.6772999999999998,1
26990,Li4 Fe2 Co3 Sb3 O16,0.9088000000000003,1
26991,Mn2 Fe3 Ni1 P6 O24,0.0,146
26992,Li12 Mn2 V6 P12 O48,0.3317000000000001,1
26993,Li4 V2 O1 F7,0.9141999999999999,1
26994,Li8 Co4 C8 O24,2.0957000000000003,4
26995,V2 F10,2.776,1
26996,Li3 Mn1 F7,1.554,160
26997,V8 F32,1.8642,33
26998,Li10 Mn2 Cr6 O16,2.0957000000000003,36
26999,Li6 Ni11 O2 F24,3.3242,1
27000,Li7 Cr1 Fe3 P6 O24,1.1046,1
27001,Li6 Mn8 O16,0.0,1
27002,Li3 Ni1 O1 F3,1.9121000000000001,123
27003,Li2 Ni3 O3 F2,2.2039999999999997,139
27004,Mn6 O5 F7,0.16510000000000002,1
27005,Cr3 S6 O24,0.0,146
27006,Li2 Mn1 P2 O8,0.7448999999999999,2
27007,Li6 V1 F8,3.5201000000000002,225
27008,Li2 V4 O4 F6,1.4253,5
27009,Li1 V5 O7 F1,0.7892999999999999,160
27010,Li3 Ni5 O1 F11,3.4555,1
27011,Li2 Ni3 P4 O14,3.5965000000000003,2
27012,Li3 Si1 Ni3 O8,0.2410000000000001,10
27013,Mn2 F8,0.03469999999999995,14
27014,Li4 Mn8 F20,3.2635,15
27015,Li8 Fe8 P8 O32,3.3629000000000002,61
27016,Li8 Mn4 F20,1.8375000000000001,62
27017,Li4 Ti2 Fe3 Cu3 O16,0.0,8
27018,Sn4 P8 O24,3.7461,14
27019,Li2 Fe4 P4 O16,1.3618999999999999,7
27020,Li4 Mn3 O1 F11,0.8136,1
27021,W4 O4 F16,5.0486,14
27022,Li2 Co2 P2 O8,2.9865,1
27023,Li4 Fe8 B8 O24,1.4577000000000002,1
27024,Li6 Sb1 S2,0.0,5
27025,Li8 V4 Si6 O20,1.8135000000000003,15
27026,Li9 V5 Si2 O16,1.6405000000000003,2
27027,Li4 V4 F16,2.2786,14
27028,Li6 Cr1 Co3 P6 O24,0.8313000000000001,1
27029,Li2 Co2 P2 O8,2.9396999999999998,9
27030,Li2 Ni2 P2 O8,3.6784,148
27031,Li2 V2 W2 O12,2.8724999999999996,2
27032,Li3 Mn2 Sn1 O6,0.0,12
27033,V2 O2 F2,0.5768,65
27034,Na4 Sn2 P2 C2 O14,0.0,11
27035,Ba8 Y4 F28,6.2373,62
27036,Ba8 Y4 Br28,3.6402,14
27037,Ba12 Y8 Br48,3.5141,14
27038,Tb4 Ti4 O12,0.0,62
27039,Li8 Bi4 B8 O24,0.018000000000000016,14
27040,Li4 Bi2 B2 O10,0.0,129
27041,Sm8 Cu8 O20,0.35530000000000017,33
27042,Ba12 Y8 Cl48,4.3262,14
27043,Li24 Nb8 S32,2.149,61
27044,Bi12 B1 O20,0.0,197
27045,Tb4 In4 O12,2.5934999999999997,62
27046,Sb4 S4 O16 F12,1.8163,19
27047,Li12 Nb4 O4 F24,4.9368,19
27048,Li6 Fe3 Cu1 P6 O24,0.3600000000000001,1
27049,Li7 Mg1 Ni7 O16,0.10109999999999975,5
27050,Li2 Mn2 P8 O24,1.2959999999999998,15
27051,Li3 Ti3 V3 O12,1.4748000000000006,1
27052,Na2 Cr2 P2 C2 O14,0.7245,4
27053,Li4 Ti2 Co4 O10,1.4176000000000002,1
27054,Hf4 Fe4 O12,2.9099000000000004,62
27055,Li4 Co3 W1 O8,1.9309999999999996,148
27056,Li6 Cr2 Fe6 O16,0.6441999999999997,2
27057,Sb4 P4 O16,3.342,62
27058,Li6 Mn3 Ni1 P6 O24,0.40749999999999975,1
27059,Mn4 P8 O28,1.2775,205
27060,Li3 Cr3 Cu1 O8,0.0,12
27061,Li4 V3 Co2 Sb3 O16,0.05149999999999988,8
27062,Li16 Zr2 O12,4.0226,185
27063,Na6 B2 Sb2 As2 O14,2.9280999999999997,11
27064,Li4 Ti2 Co4 O10,1.2580999999999998,9
27065,V1 Sb4 O12,1.1530000000000005,1
27066,Li4 Ti1 Co3 O8,1.0356999999999998,2
27067,Li4 Ti2 Mn4 O10,0.6481000000000003,5
27068,Li6 Mn3 Cr1 P6 O24,0.6678,1
27069,Li5 Fe5 Sb2 O12,0.0,5
27070,Ti2 Mn18 O40,1.5893000000000002,1
27071,Li11 Ti4 Fe9 O32,0.0,1
27072,Li6 Fe1 Co3 P6 O24,0.8029000000000002,1
27073,Li4 Ti3 Mn3 Cr2 O16,0.07730000000000015,1
27074,Na4 Mn2 B2 As2 O14,0.3288,11
27075,Li5 Mn3 V2 O10,0.7427000000000006,2
27076,Mn1 Fe5 P6 O24,0.0,146
27077,La8 Al8 O24,4.4777,14
27078,V3 Fe2 Co1 P6 O24,0.0,146
27079,Li4 Fe5 Ni3 O16,0.0,1
27080,Li4 Mn4 Fe4 O16,1.4258,95
27081,Na6 Co2 Si2 B2 O14,0.0,11
27082,Li4 Fe5 Cu3 O16,0.0,8
27083,Li2 Zn4 Fe18 O32,1.3699,1
27084,Cr1 Cu3 P4 O16,0.0,6
27085,Al32 Si4 O56,4.0633,62
27086,Li4 Ti3 Mn3 W2 O16,0.5023999999999997,1
27087,Li24 Mn4 B12 O36,1.2196,14
27088,Fe3 Co3 P6 O24,0.12109999999999999,146
27089,Li2 Fe2 P2 O8,3.2872,1
27090,Li8 Ti8 O20,3.7177,14
27091,Li5 Fe5 P6 O24,2.1622000000000003,1
27092,Li4 Ni6 O12,0.4941,1
27093,Na2 Li10 Mn4 P4 C4 O28,3.5517999999999996,1
27094,Li3 Cr3 Si1 O8,2.9838000000000005,10
27095,Co3 S6 O24,0.0,146
27096,Li20 Co4 O16,1.4065999999999999,58
27097,Na8 Ti8 O20,3.8739,29
27098,Mn4 Cu2 P6 O24,0.0,167
27099,Li2 Mn1 Co3 O8,0.0,12
27100,Sn16 N16 O8,0.006999999999999673,1
27101,Li2 V18 O44,0.0,11
27102,Li5 V5 Cr2 O12,0.2820999999999998,5
27103,Mn6 O2 F10,0.0,31
27104,Li2 Nb2 Fe2 O8,0.7841999999999998,74
27105,Li2 V12 O29,0.011499999999999844,12
27106,Na2 Li10 Mn4 P4 C4 O28,3.5457,1
27107,Na40 V8 O32,0.31190000000000007,61
27108,Li20 La12 Nb8 O48,3.4928000000000003,1
27109,Li6 La10 Ti12 Nb4 O52,1.9064,13
27110,Li16 Sn4 P8 O32,3.1841000000000004,14
27111,Li8 V12 Sn4 O32,0.6480000000000001,19
27112,Li4 Mn2 Ni4 O12,0.7609999999999997,64
27113,Li2 Cr3 Fe1 O8,0.0,160
27114,Li4 Ti6 Co2 O16,1.7291000000000003,8
27115,Li8 Cr12 Fe8 O48,0.6282,60
27116,Fe4 Cu2 P6 O24,0.0,167
27117,Li8 Mn12 F32,3.0444,14
27118,Fe2 Co2 P4 O16,0.6879,11
27119,Li4 Fe2 Ni3 Sn3 O16,0.18889999999999985,1
27120,Li4 V2 Si12 O30,1.7923,74
27121,Li3 Ti1 Fe2 O6,0.0,12
27122,Li6 Co10 O20,0.26350000000000007,1
27123,Li6 Cr3 Cu1 P6 O24,0.0028999999999999027,1
27124,Li4 Fe2 Co3 Sn3 O16,0.0,1
27125,Ti16 N16 O8,0.9737,1
27126,Ti16 N16 O8,1.0598999999999998,1
27127,Zr10 O20,3.3165999999999998,85
27128,Na2 Ni2 B2 O6,3.0241,1
27129,Ti3 Co1 Cu2 P6 O24,0.0,146
27130,Li3 V3 Cr3 O12,1.3665000000000003,1
27131,Ag4 Ru4 O12,0.0,227
27132,Li8 Ti12 Nb4 O32,0.0,212
27133,Li40 Sb8 S32,1.6743999999999999,61
27134,Ti16 N16 O8,0.9390000000000001,1
27135,Li18 Sb6 P16 O58,3.8270000000000004,165
27136,Ti3 V2 Sb1 P6 O24,0.028400000000000425,146
27137,Li8 Fe12 F32,2.9193000000000002,14
27138,Li2 Mn1 W1 O6,1.1686,146
27139,La8 Nb8 N8 O20,1.5686,1
27140,Mn8 P8 H28 N4 O40,0.7942999999999999,19
27141,Li4 Ti3 V3 Co2 O16,1.202,1
27142,Li3 V6 O3 F15,1.5573000000000001,1
27143,Li11 V12 O24 F24,0.0,1
27144,Li5 Mn8 B8 O24,0.4400999999999997,1
27145,Li4 Fe8 B8 O24,1.4756,1
27146,Na10 Co4 As2 C8 O32,0.0,15
27147,Li5 Mn8 B8 O24,0.2379,1
27148,Li4 Fe4 F16,3.2287000000000003,14
27149,Li2 Cr2 P4 O14,2.4682,9
27150,Mn6 O10 F2,0.0,4
27151,Li8 V4 F20,2.1904,62
27152,Co8 P8 O32,0.9531,14
27153,Mn6 O5 F7,0.0,1
27154,Li4 Mn3 V3 Sn2 O16,0.7739000000000003,1
27155,Ba8 Y8 Br40,3.8004,14
27156,Li1 La3 Ti3 Cr1 O12,0.0,1
27157,Li5 Mn8 B8 O24,0.575,1
27158,Li12 Mn2 V6 P12 O48,0.20340000000000025,5
27159,Co6 O3 F9,0.6997999999999999,38
27160,Fe8 O2 F14,0.04849999999999999,12
27161,Li4 V8 O4 F20,1.1189000000000002,1
27162,Li16 Co8 P16 O56,3.1084000000000005,33
27163,Li6 Mn2 V2 P6 O24,0.2985,9
27164,Mn12 O7 F17,0.0,1
27165,Mn8 O14 F2,0.0,7
27166,Li12 Mn2 V6 P12 O48,0.4740000000000002,5
27167,Na8 Sn10 O24,1.4095999999999997,2
27168,Li8 Fe4 H32 S8 O48,3.8098999999999994,14
27169,Li8 Mn4 Co6 O20,0.0,2
27170,Na8 Fe4 P2 C8 O32,0.0,70
27171,Li8 Cr10 P12 O44,1.9217,14
27172,Li4 Mn6 B6 O18,0.0,2
27173,Li5 Mn8 B8 O24,0.4278000000000002,1
27174,Fe10 O5 F15,1.4514999999999998,38
27175,Li4 Mn1 P6 H8 O22,4.2129,2
27176,Li4 Cr2 P4 O16,0.0363,2
27177,Li5 Ti2 Cu3 O10,0.19169999999999998,2
27178,Sc16 Ti16 O56,2.8328,4
27179,Ta8 Zn16 O36,3.6619,60
27180,Li2 Fe2 P4 H2 O14,3.8876,2
27181,Ta6 O15,3.0164999999999997,8
27182,Li4 Fe4 F12,3.2948999999999997,15
27183,Ce4 Cr4 O12,0.0,62
27184,Li8 Mn4 H32 S8 O48,3.9353000000000002,1
27185,Li4 Mn6 B6 O18,0.18369999999999997,2
27186,Li6 Te1 O6,3.1117,2
27187,Li8 Mn4 P4 H4 O20,2.8968,14
27188,Li2 Mn2 P6 H16 O26,3.7556000000000003,2
27189,Co6 O2 F10,0.0,6
27190,Ti16 N16 O8,1.0337999999999994,1
27191,Li4 Mn3 Cr2 Fe3 O16,0.0,1
27192,Mn6 O7 F5,0.0,5
27193,Mn12 O7 F17,0.2733000000000001,1
27194,Li10 Fe8 P16 O56,1.4432000000000003,1
27195,Mn8 O12 F4,0.0,38
27196,Li4 Fe8 O2 F16,2.8475,9
27197,Mn12 O5 F19,0.0,1
27198,Li2 V4 P8 H4 O32,0.8465000000000003,1
27199,Fe10 O5 F15,1.5199,38
27200,Li12 Mn8 Cr8 O32,0.0,2
27201,Li8 Fe4 P4 H4 O20,3.3721000000000005,14
27202,Li6 Mn4 P6 O24,0.5818999999999999,5
27203,Li2 Nb2 V2 O8,0.0,74
27204,Li4 Mn6 B6 O18,0.0,2
27205,B16 C8 Sc8,0.0,135
27206,Li8 Cr8 Si16 O48,2.1082,1
27207,Li2 Ni2 P6 O18,4.5459,188
27208,Li6 Cu2 S4,2.7548000000000004,167
27209,Li8 V2 F12,3.3877999999999995,14
27210,Th1 H3,0.0,139
27211,Tm2 Co1 Ir1,0.0,225
27212,Tm2 Ga1 Os1,0.0,225
27213,Cs2 Sn6,0.0,194
27214,Tl1 W2 Cl6 O2,0.0,12
27215,Ce16 Mg4 Ru4,0.0,216
27216,Li4 Cu6 F18,0.3101999999999999,2
27217,Li4 Co5 O12,0.01870000000000016,1
27218,C12 Er8,0.0,220
27219,Sb1 Pd3,0.0,225
27220,Pr3 Cd1,0.0,139
27221,Li3 Ca1,0.0,139
27222,Mg1 Rh5,0.0,8
27223,Nd2 Zn1 Ir1,0.0,225
27224,Si8 H48 C16,3.5705999999999998,2
27225,Sm2 Ru1 Au1,0.0,225
27226,Rb2 S1 Br1 Cl6,0.0,225
27227,Fe3 Co2 Te1 P6 O24,0.0,146
27228,Mg1 V4 S8,0.0,166
27229,Mg1 Mn4 O8,0.16349999999999998,166
27230,Ca11 Mn2 N10,0.000500000000000167,8
27231,Al1 Cu1 F5,0.0,71
27232,Mg2 Ti3 O8,2.5541000000000005,12
27233,Y4 Ni4 O14,0.6823000000000001,227
27234,V4 Zn1 O10,1.1728999999999998,38
27235,Fe2 P8 O24,0.6860999999999999,15
27236,Ca6 Co4 O14,0.20789999999999997,36
27237,Ca12 Cu8 Ge12 O48,0.4249999999999998,230
27238,Mg12 Fe8 Ge12 O48,2.6938,230
27239,Mg4 Co2 W2 O12,2.4956,14
27240,V2 Zn2 Si4 O12,1.5693000000000001,15
27241,Mg6 V12 O24,1.5459000000000005,1
27242,Mg2 Sn2 P4 O14,3.7164999999999995,2
27243,Ni4 Te4 P8 O36,1.2678000000000003,1
27244,Pr3 Al1 C1,0.0,221
27245,Mg1 Ni1,0.0,221
27246,Na4 Co2 P4 O14,2.3951000000000002,74
27247,Li6 Mn12 O24,0.0,9
27248,Mn8 H8 O16,1.3787999999999998,1
27249,K4 Mn4 O8,1.7737999999999998,14
27250,Y1 Mg7,0.0,187
27251,K1 Ti1 S2,0.0,166
27252,Hf2 O4,4.668200000000001,137
27253,Li1 Mg6 Sn1,0.0,38
27254,Ni4 Ge4 Pr3,0.0,71
27255,Mg15 Sb1,0.0,187
27256,Ca1 Mg15,0.0,187
27257,Ce1 Mg15,0.0,187
27258,Yb1 Ni4 Au1,0.0,216
27259,Fe1 Ni2 Se4,0.0,12
27260,Fe1 Cu2 Si1 Se4,0.0,121
27261,Te2 Mo1 W2 Se4,0.0,156
27262,Te2 Mo1 W2 Se4,0.04820000000000002,156
27263,Te4 Mo2 W1 Se2,0.04620000000000024,156
27264,Te2 Mo2 W1 Se4,0.018299999999999983,187
27265,Te4 Mo2 W1 Se2,0.05810000000000004,156
27266,Te2 Mo1 W2 Se4,0.020199999999999996,156
27267,Te2 Mo3 Se2 S2,0.0,156
27268,Te2 Mo2 W1 Se4,0.0,156
27269,Te2 Mo3 Se2 S2,0.0,156
27270,Te2 Mo3 Se2 S2,0.0,156
27271,Mg14 Cd1 Bi1,0.0,38
27272,Mg14 Ga1 Sn1,0.0,38
27273,Na1 Li1 Mg14,0.0,187
27274,Te2 Mo3 W1 Se2 S4,0.0,156
27275,Te2 Mo3 W1 Se2 S4,0.0,156
27276,Te2 Mo3 W1 Se2 S4,0.0,156
27277,Te2 Mo3 W1 Se2 S4,0.0,156
27278,Te2 Mo3 W1 Se2 S4,0.0,156
27279,Te2 Mo4 Se2 S4,0.0,156
27280,Te2 Mo3 W1 Se2 S4,0.0,156
27281,Mg14 Zr1 Bi1,0.0,38
27282,Ca1 Mg14 Cd1,0.0,38
27283,Na1 Mg14 Al1,0.0,38
27284,Te2 Mo1 W3 Se2 S4,0.0,156
27285,Te2 Mo1 W3 Se2 S4,0.0,156
27286,Te2 Mo1 W3 Se2 S4,0.0,156
27287,Te2 Mo3 W1 Se2 S4,0.0,156
27288,Te2 Mo3 W1 Se2 S4,0.0,156
27289,Te2 Mo2 W2 Se2 S4,0.0,156
27290,Te2 Mo3 W1 Se2 S4,0.0,156
27291,Te2 Mo3 W1 Se2 S4,0.0,156
27292,Mg6 V1 Fe1 O8,0.9962,123
27293,Mg6 Fe1 Cu1 O8,0.0,123
27294,Na1 Mg14 Co1 O16,0.24619999999999997,123
27295,Li1 Mg14 W1 O16,2.3137,47
27296,Mg30 Ti1 Co1 O32,0.23769999999999936,123
27297,Mg30 Ti1 Cu1 O32,0.5133000000000001,123
27298,Mg30 Ti1 Zn1 O32,0.0,123
27299,Mg30 Zn1 Sn1 O32,1.9640999999999993,123
27300,Mg30 Ti1 Fe1 O32,0.19640000000000057,123
27301,Mg30 Mn1 Sn1 O32,1.8533000000000008,123
27302,Mg30 Mn1 Sn1 O32,1.5852999999999993,123
27303,Ca2 Mg10,0.0,8
27304,Mg3 Cd1,0.0,187
27305,Ca6 Mg6,0.0,8
27306,Mg4 Cd2,0.0,194
27307,Ce8 Mg4,0.0,15
27308,Na1 Ce1 Mg30 O32,0.0,123
27309,Zn4 Cr8 P8 O32,1.9589000000000003,15
27310,Mn8 P8 O36,0.012700000000000045,11
27311,Mg4 Ni8 P8 O32,2.5845000000000002,1
27312,Zn2 Bi8 O18,1.0380000000000003,3
27313,Ba2 Y1 Ag3 O8,0.0,123
27314,Zn8 Si16 Ni8 O48,3.4739,61
27315,Mg8 V16 Co8 O56,1.9566,14
27316,Ca4 Sn6 O16,2.0574,186
27317,Si2 Cu16 Se12,0.4090000000000007,31
27318,Ca4 V4 As8 O28,2.2981,14
27319,V2 Ge4 O12,1.6478000000000002,15
27320,Ca2 Ti2 Sn2 P6 O24,0.0,161
27321,Mg2 Ti2 Cu2 P6 O24,0.0,161
27322,Zn4 Cu8 P8 O32,0.0,15
27323,Mn9 Zn2 O13,0.0,2
27324,Ta4 Zn2 O12,3.0212,31
27325,Mg4 Nb4 Sn2 O16,2.3247999999999998,1
27326,Ca2 Cr4 O8,2.1024000000000003,63
27327,Zn2 Fe6 P6 O26,1.9318999999999997,11
27328,V6 Zn2 P6 O26,1.5596,11
27329,Ca4 Cu4 P8 O28,0.011099999999999888,14
27330,Ca1 V4 O10,0.8309,25
27331,Mn4 Zn2 O8,0.0,160
27332,Mg2 V4 O8,1.4609000000000005,160
27333,C4 Sr2,2.2909,15
27334,Ho1 Hg2,0.0,12
27335,Eu4 Ti4 O10,0.0,46
27336,Ba3 Sr5 Co2 Cu6 O24,0.0,6
27337,Sr16 Ca16 Mn24 Fe8 O80,0.0,1
27338,Sr16 Ca16 Co24 Cu8 O80,0.0,1
27339,La4 Co4 O10,0.6093999999999999,46
27340,Sr12 Ca20 Mn12 Fe20 O80,0.0,1
27341,K4 Na4 Mo6 W2 O24,0.0,123
27342,Cs1 Eu1 S2,0.0,166
27343,Eu2 Zn2 Ge2,0.0,71
27344,Ti2 Zn2 O6,2.8321,161
27345,Ba2 Cr2 S4,0.0,129
27346,Sr2 Zr1 Co1 O6,0.0,139
27347,Ba2 Zr2 Se6,0.038000000000000256,194
27348,Te2 Mo3 W1 Se2 S4,0.01650000000000018,156
27349,Ge4 Te4,0.21940000000000026,62
27350,Cs2 Eu2 S4,0.0,194
27351,Al1 Pr1,0.0,221
27352,Sr8 Co8 O20,0.0,123
27353,Mg10 Sn2,0.0,38
27354,La6 Mg6,0.0,38
27355,Y2 Sn6,0.0,139
27356,Mg2 Sn6,0.0,139
27357,Y4 Mg8,0.0,12
27358,Mg10 Ga2,0.0,8
27359,Mg1 Ga5,0.0,187
27360,Mg15 Ga3,0.0,155
27361,Mg6 Ga6,0.0,5
27362,Mg6 Al2,0.0,194
27363,Sr24 Ca8 Co24 Cu8 O80,0.0,1
27364,Sr16 Ca16 Ti4 Mn28 O80,0.0,1
27365,Ba4 Sr28 Co20 Cu12 O80,0.0,1
27366,U2 Mo10 O32,0.045700000000000074,21
27367,Tl1 Cu7 Se4,0.44010000000000016,1
27368,V3 Fe1 Co2 P6 O24,0.01399999999999979,146
27369,V2 Fe3 Sn1 P6 O24,0.0,146
27370,Ti3 Cr2 Fe1 P6 O24,0.0,146
27371,Li1 Mo1 P2 O8,1.3816,1
27372,Li4 Ni2 P10 O30,0.7768,11
27373,Cr4 P10 O30,0.2634000000000003,7
27374,Cu16 P12 O48,0.02900000000000036,62
27375,Na4 Co4 P4 O16,2.476,11
27376,Na4 Cr8 O16,0.18700000000000006,59
27377,Na10 V2 O8,0.29000000000000004,59
27378,Cd4 F8,2.7465,62
27379,Hf2 Ta2 N2 O6,2.8522,4
27380,Mn2 Se2 O10,0.0,15
27381,V4 O10,2.5000999999999998,2
27382,Li4 Fe2 Sn2 S8,0.0,7
27383,Rb2 Cu1 Mo1 Cl6,0.7412999999999998,225
27384,Rb2 Li1 Mo1 Br6,1.2695,225
27385,Rb3 Dy1 Cl6,4.5966000000000005,225
27386,K2 Na1 Nd1 F6,5.9917,225
27387,K2 Li1 Mo1 Br6,1.2722,225
27388,Na2 Li1 In1 F6,4.8635,225
27389,K3 Y1 Br6,3.801,225
27390,K3 Sb1 Br6,2.8539,225
27391,K3 Pd1 F6,0.0,225
27392,K2 Tl1 As1 Cl6,1.4877999999999998,225
27393,K2 Li1 Ce1 Cl6,0.3230999999999997,225
27394,K3 Sc1 I6,2.3346,225
27395,Rb2 Sc1 Au1 Br6,1.5925,225
27396,Cs1 K2 Al1 F6,5.6144,225
27397,Cs3 Bi1 Cl6,3.9505,225
27398,Cs3 Sb1 Br6,2.8535,225
27399,Rb2 Cu1 As1 F6,1.0677999999999996,225
27400,Rb2 In1 Ga1 Cl6,1.6292999999999997,225
27401,Ca1 Cl2,4.8793,225
27402,Ti6 Zn6 Sn6 O24,2.8720000000000003,173
27403,K2 Au4 O8,0.0,131
27404,K3 Cu2 H7,0.0,139
27405,Sn3 Tb1,0.0,221
27406,Li4 Cr4 P16 O48,2.2222,4
27407,Ta8 Cr3 O24,0.0,1
27408,Sr4 Nb17 O26,0.0,83
27409,Na7 Sr6 Nd7 Ti20 O60,0.0,8
27410,Li6 Mn2 Co2 O10,1.0971000000000002,2
27411,Li6 Mn2 Co2 O10,0.8934000000000002,12
27412,Li6 Mn2 Co2 O10,1.0326,1
27413,Li7 Mn4 Co1 O12,0.46640000000000015,2
27414,Li7 Mn4 Co1 O12,0.40680000000000005,2
27415,Li7 Mn4 Co1 O12,0.4567000000000001,1
27416,Li7 Mn4 Co1 O12,0.4878,1
27417,Li7 Mn4 Co1 O12,0.4394999999999998,12
27418,Li7 Mn4 Co1 O12,0.3611,8
27419,Li7 Mn4 Co1 O12,0.3599000000000001,8
27420,Li7 Mn4 Co1 O12,0.2958000000000003,8
27421,Mn3 Ni2 Sb1 P6 O24,0.0,146
27422,Li2 V6 O2 F22,0.0,1
27423,Li2 V6 O2 F22,0.0,1
27424,Li2 Ni2 P8 O24,0.059599999999999986,15
27425,Li4 Mn4 F16,2.7424999999999997,13
27426,Li2 V4 P8 H4 O32,1.0893000000000002,1
27427,Li8 Mn8 P8 O32 F8,0.21919999999999984,1
27428,Mn6 O9 F3,0.0,5
27429,Li4 Mn4 P12 O36,3.8692,14
27430,Li4 Fe16 P12 O48,3.1687000000000003,58
27431,Li9 Fe4 B8 O24,0.0,1
27432,Li14 V12 O24 F24,0.25449999999999995,1
27433,Li12 Mn2 V6 P12 O48,0.44410000000000016,2
27434,Li12 Mn2 V6 P12 O48,0.5005000000000002,5
27435,Li6 Mn1 V3 P6 O24,0.5407000000000002,1
27436,Li6 Mn3 Fe1 P6 O24,0.792,1
27437,Li12 Mn2 V6 P12 O48,0.45100000000000007,1
27438,Li6 V5 O12,0.7081,1
27439,Li6 Co2 O1 F11,0.7703,1
27440,Li12 Mn2 V6 P12 O48,0.6993,5
27441,Li10 Mn8 P16 O56,0.21040000000000014,1
27442,Li5 Mn3 Cu1 P4 O16,1.4085,1
27443,Li8 V6 P16 O58,0.1895,1
27444,Li8 V6 P16 O58,0.5085,1
27445,Li8 V6 P16 O58,0.2741,1
27446,Li4 Fe1 P6 H8 O22,3.9155,2
27447,Li6 V10 P12 O48,1.9084,15
27448,Li12 Mn4 V4 P12 O48,0.46360000000000023,1
27449,Li9 Ni21 O36,0.03909999999999991,1
27450,Li3 Ni4 O8,0.0,2
27451,Li4 Ti2 Co4 O10,1.3087000000000004,1
27452,Li8 Ni12 W4 O32,0.6423000000000001,1
27453,Li8 Mn4 H32 S8 O48,3.9766999999999997,15
27454,Li12 Mn3 Co1 P4 C4 O28,2.1864000000000003,6
27455,Li12 Cr1 Ni3 P4 C4 O28,1.9746000000000001,6
27456,Li4 Bi8 O16,0.0,61
27457,Fe4 O4 F4,1.7437,62
27458,Fe8 O2 F14,1.7501999999999998,8
27459,Gd8 W8 O36,2.2217000000000002,20
27460,Cr8 O20,0.49749999999999994,19
27461,Fe10 O5 F15,0.6097000000000001,6
27462,Yb2 Mo2 Cl2 O8,1.9038,12
27463,Sr2 O20,0.0,124
27464,Sr1 H16 O10,3.1874000000000002,5
27465,K8 Al8 Si16,0.013799999999999812,88
27466,K4 Nb2 O6 F10,0.8905,5
27467,Ca4 Fe4 Si10 O30,1.2104999999999997,2
27468,Ca2 B5 Cl1 O10,2.8579,1
27469,Al2 F6,7.4891000000000005,1
27470,Ac2 La6,0.0,194
27471,Ac3 Dy1,0.0,139
27472,Ba3 Ca1,0.0,139
27473,Dy1 Np1 Ru2,0.0,225
27474,Ga2 Co6,0.0,194
27475,Eu1 Au3,0.0,139
27476,Gd2 Mg1 Ru1,0.0,225
27477,K2 Cd1 Au1,0.0,225
27478,Ho1 Lu1 Ir2,0.0,225
27479,La6 Cd2,0.0,194
27480,Li1 Ce2 Os1,0.0,225
27481,Lu1 Ag3,0.0,225
27482,Cs1 Rb3,0.0,225
27483,Mg16 Al12 Ag1,0.0,160
27484,Mg2 Ir1 Au1,0.0,225
27485,Mg2 Ir1 Rh1,0.0,225
27486,Mg5 Pd1,0.0,189
27487,Nd6 Sc2,0.0,194
27488,Pa1 Ti3,0.0,225
27489,Pm2 Br4,0.0,136
27490,Pr3 Sc1,0.0,139
27491,Pt1 Au1,0.0,187
27492,Sr1 In3,0.0,221
27493,Tb6 Mg2,0.0,194
27494,Te2 S6,0.0,194
27495,Tb1 Eu1 Rh2,0.0,225
27496,Th1 Ni2 H2,0.0,191
27497,Tm6 Th2,0.0,194
27498,Fe2 Cu4 Si2 S8,0.09519999999999929,31
27499,Np8 C12,0.0,220
27500,U1 Tl1 B5 O11 F1,0.5534999999999999,1
27501,Pr2 Al2 Fe15,0.0,166
27502,Ta3 Al4 O14,0.0,143
27503,Cu3 P4 O14,0.0,2
27504,Ta12 Ga10,0.0,194
27505,Ti4 V4 O16,1.323,14
27506,Te8 P8 Ir8,0.8603000000000005,61
27507,Y6 Al2 Co2 S14,0.0,4
27508,Pr2 Mn3 Cu9 As7,0.0,174
27509,Sn4 Pb4 O14,0.0,227
27510,Pu2 B8 Cl2 O16,0.0,9
27511,Cr5 Bi6 Se16,0.0,8
27512,Hf6 Co23,0.0,225
27513,Zr6 Ga16 Pt7,0.0,225
27514,K2 Zn4 P4 O16,0.011199999999999988,2
27515,Sm4 B8 H32,0.0,60
27516,Dy4 Mn4 Cu16 P12,0.0,62
27517,La6 I26 O78,0.020399999999999974,161
27518,Na4 Sb10 C4 S4 N4 O6 F18,3.1334999999999997,2
27519,U4 Si24 H216 C72 N12 F4,0.2741,14