Index,Composition,bandgap,spgN
6694,Na2 Zn2 As2 H8 O12,2.8828,2
6695,Y6 Mn14 Fe9,0.0,225
6696,Cs8 Mo4 S8 O8,2.3663000000000003,60
6697,Na1 H8 Rh1 N8 O12,2.6688,202
6698,H20 Pb2 C12 S4 I2 N2,3.1631,2
6699,Zn4 H20 N24 O10,3.1429,13
6700,Ho2 H18 C10 N4 O16,4.6238,20
6701,Sr6 Bi4 Se12 O38,0.2889999999999997,11
6702,Mn2 Sb4 H16 S8 N8,0.6488,15
6703,B32 P4 H96 Rh4 C28,1.6665999999999999,2
6704,Zn4 Si16 H140 C52 Cl4 O4,3.7616,14
6705,Cr4 P12 H64 C12 N4 O48,2.7051999999999996,14
6706,Pt4 C8 S8 O32 F8,3.4607,14
6707,Co4 H80 I4 N24 Cl8 O16,3.3978,14
6708,Cd2 H24 C8 I4 N8 O8,3.3454,43
6709,Mo16 H56 N8 O68,2.4276999999999997,14
6710,Cs8 Ti16 Si8 H24 O64,2.6241000000000003,66
6711,Mo8 P16 H144 C48 Cl16,1.3003,96
6712,Al4 H72 C24 N8 Cl12,5.4015,62
6713,Cs8 V4 S20 O4,1.6596,14
6714,B64 P8 H192 Pt8 C56,1.3114,14
6715,Ni4 H36 C16 N12 O24,4.0353,52
6716,K4 I8 O24,0.0,14
6717,Mn4 C8 O24,0.0,14
6718,Zn6 P8 H56 C16 N4 O24,4.958600000000001,70
6719,Ti4 H22 N16 F24,0.0,4
6720,B36 H80 C20 I8 N4,3.524,29
6721,Mg6 Si8 O24,0.07479999999999998,15
6722,Ti4 H4 C2 Se8 Cl32 O10,2.5757,13
6723,Mn4 Sb4 H16 S10 N8,0.8406000000000002,2
6724,Zn2 B20 H52 O16,4.0151,15
6725,Ca8 Si4 O16 F4,0.3509,14
6726,Ca8 P16 H80 N16 O64,4.8189,60
6727,Ca4 H16 Ir4 O8 F24,0.014499999999999999,14
6728,Mg12 S8 O40,0.8216,96
6729,Sn2 H28 C8 N4 Cl8,3.3145,14
6730,Mn16 Si12 O50,0.06099999999999994,12
6731,Cr2 H24 C4 N12 O8,3.1215,2
6732,Zn4 Cu20 P8 O60,0.019199999999999884,14
6733,Ti2 Si6 H60 C20 N8 Cl4,1.7525,2
6734,H40 C16 S4 N8,3.6470000000000002,14
6735,V2 Co4 P4 N2 O24,0.271,26
6736,Si4 B2 As2 H58 C18 N2,3.3639,36
6737,Rb4 Al4 V4 P8 O40,0.5452,14
6738,Zn4 P12 H64 C12 N4 O48,5.068,14
6739,H80 C32 S8 N16,3.7237,14
6740,Sb4 H48 C24 N36 Cl24,2.9821,19
6741,Yb18 Mn8 Bi18,0.0,55
6742,K8 U4 Co4 P8 O44,0.06140000000000001,14
6743,Na8 Cu4 P16 H72 N16 O60,0.9889,62
6744,Cu6 Ag6 S6,0.0,129
6745,Ba1 Sm1 Co2 O6,0.0,123
6746,Sr2 In1 Re1 O6,0.0,225
6747,K3 Tb1 F6,4.948,139
6748,Rb3 Yb1 F6,0.0,139
6749,K3 Eu1 F6,0.0,139
6750,Pr2 Mn2 Si4,0.0,63
6751,Rb2 Dy2 I6,0.0,63
6752,K2 Dy2 I6,0.0,63
6753,Ho1 Cu1 Se2,0.5111999999999997,164
6754,Ti1 I2,0.0,164
6755,Yb8 Rh2,0.0,227
6756,Yb4 Mo8 O30,0.08030000000000004,14
6757,U2 Fe8 B2,0.0,191
6758,Si2 Cr2 Er1,0.0,139
6759,Si2 Cr2 Lu1,0.0,139
6760,Sr2 La1 Cu2 Hg1 O6,0.0,123
6761,Sr4 Ca2 Fe4 Bi4 O18,0.0,67
6762,Sb8 Cl2 O12,0.0,12
6763,Rb2 Yb2 Mo4 O16,0.0,15
6764,Sm8 Ru4 O20,0.0,62
6765,Na3 Pr1 V2 O8,3.4837,164
6766,Na8 Al12 S1 O28,0.0,215
6767,Na12 Cr4 O16,0.0,198
6768,Li2 H8 N6 O12,3.1411000000000002,15
6769,Li4 H24 C16 N4 O26,2.3961,11
6770,Li2 Al2 P2 O10,0.2799999999999998,2
6771,K2 Li2 Mo2 O8,3.7376,186
6772,K4 Mo2 Br8,0.12070000000000003,139
6773,La8 Mo18 O72,0.1478,220
6774,Ho4 Mo4 O20,0.0,14
6775,Ho4 Mn1 Si7,0.0,38
6776,Gd4 Mo4 O20,0.0,14
6777,Fe1 H12 C2 N10 O6,1.0806,2
6778,Co2 Se2 O10,0.0,15
6779,Cl4 O8 F8,0.5133000000000001,12
6780,Ca4 P4 O16,0.0,14
6781,Ca4 Mg4 V4 O20,0.7973000000000001,19
6782,Ca4 Mn6 Si6 O28,0.0,11
6783,Ca12 Ga8 Sn12 O48,1.9330000000000003,230
6784,Ba2 Tb2 Fe8 O14,0.5758999999999994,186
6785,Ba1 Er1 Fe4 O7,0.0,216
6786,Ba2 Y1 Cu2 Hg1 O7,0.0,123
6787,Ba2 Dy1 Cu2 Hg1 O7,0.0,123
6788,Ba2 Dy2 Co4 O11,0.0,47
6789,Ba4 H24 C8 N16 O20,4.3083,14
6790,Ba2 Gd1 Cu2 Hg1 O7,0.0,123
6791,Zr1 W1 C2,0.0,166
6792,Zr1 In1 Ni2,0.0,123
6793,Zr1 Al1 Ni2,0.0,123
6794,Zn3 Fe1 S4,0.0,160
6795,Yb2 U1 S3 O2,0.07690000000000019,107
6796,Y6 Ge2 O13 F3,0.6998,1
6797,Y4 Fe1 S7,0.06109999999999971,8
6798,U1 Al8 Fe2 Cu2,0.0,71
6799,V2 Cr2 Fe1,0.0,42
6800,U2 Ga4 Cu12,0.0,160
6801,Ti1 In1 Cu2,0.0,123
6802,Ti1 Al1 Ni2,0.0,123
6803,Ti1 Bi2 O4 F2,1.1394000000000002,139
6804,Ti1 Al1 Cu2,0.0,123
6805,Ti2 Ag1 Bi1 O6,1.4462000000000002,121
6806,Th4 Cu6 Sn7,0.0,99
6807,Ta3 Ru1,0.0,65
6808,Sr1 Gd1 Fe1 Co1 O6,0.0,216
6809,Sr4 La1 Cl11,1.8224,139
6810,Sr8 Li4 Si4 N12,0.058000000000000274,5
6811,Sr2 Cu1 C1 O5,0.0,25
6812,Sm1 Cu3 Ag2,0.0,191
6813,Re1 W2,0.0,69
6814,Pr12 Si6 Ni4,0.0,6
6815,Pr3 Tm3 Mn23,0.0,160
6816,Nd4 Cu1 Ni1 O8,0.0,38
6817,Nb1 O2 F1,0.8744000000000001,123
6818,Nb6 Ga1 Si1,0.0,200
6819,Nb2 Al2 Cr8,0.0,164
6820,Nb2 Al2 Co8,0.0,164
6821,Na1 Sb1 Se2,0.0,123
6822,Na4 U2 Mo6 O24,0.008699999999999264,15
6823,Na2 Sr2 Nb4 O13,2.1173,44
6824,Mo1 Ru1,0.0,187
6825,Mn5 Ga4 Pd3,0.0,187
6826,Mn1 In1 Ag1 Pd1,0.0,216
6827,Mn1 V1 Ni4 Sn2,0.0,166
6828,Mn1 Co2 Si1,0.0,123
6829,Mn1 Al1 Ni6,0.0,123
6830,Mn24 Si9 P3,0.0,6
6831,Li1 La2 Mn3 O9,0.0,164
6832,Lu4 Fe1 S7,0.07840000000000025,8
6833,Li4 Mn1 Co2 Ni1 O8,0.6013999999999999,10
6834,Li8 Mg4 Si20 O48,5.1511000000000005,142
6835,La2 Ti2 Cu1 O8,0.08370000000000033,115
6836,Li2 Ni2 H24 C6 N12 O15,4.2312,1
6837,K1 Co1 Cu1 S2,0.0,119
6838,K6 Ni2 N10 O20,1.9317,4
6839,In1 Ag3,0.0,65
6840,Hg1 Pt4,0.0,166
6841,Ho4 Fe1 S7,0.03399999999999981,8
6842,Ho2 Ga4 Fe13 C2,0.0,1
6843,Li6 P6 H8 O23,0.5653000000000001,1
6844,Ho6 Al4 Ni12 H16,0.0,139
6845,Gd1 Cu5 Se4,0.0,12
6846,H12 I6 N2 O18,3.2257000000000002,1
6847,K7 Fe5 O16,0.05699999999999994,6
6848,Gd1 Ti1 Fe9 Si2,0.0,8
6849,Ga1 Cu4,0.0,166
6850,Fe4 Si4 W4,0.0,38
6851,La2 P4 H88 C28 N14 Cl8 O4,3.7543999999999995,9
6852,Er1 Si2 Pt2,0.0,139
6853,Fe3 Rh3 S8,0.0,166
6854,Eu2 Ni1 Ge3,0.0,156
6855,Er1 Ag1 Se2,0.0,123
6856,Er4 Fe1 S7,0.0508999999999995,8
6857,Cu1 Si2 P3,0.0,8
6858,Cu3 As1 S4,0.0,6
6859,Co5 Sn2 Sb2,0.0,187
6860,Cr2 B4 Ru2,0.0,26
6861,Er2 P4 H6 O20,0.6728999999999999,1
6862,Cr4 Fe1 Co1 S8,0.0,216
6863,Cr4 In2 S8,0.0,74
6864,Cr4 Co2 Se2 S6,0.0,44
6865,Cr4 Fe2 Se2 S6,0.0035999999999996035,44
6866,Ce1 U1 Fe4,0.0,216
6867,Cu5 H8 Cl2 O10,0.0,2
6868,Cd1 In2 Se2 S2,0.3759999999999999,160
6869,Ce3 Er3,0.0,160
6870,Ca1 La1 Ga1 O4,3.5416000000000007,107
6871,Cr16 Co14,0.0,102
6872,Bi3 Pd5,0.0,187
6873,Ca2 La2 Ti3 Cu1 O12,0.0,123
6874,Bi4 Te3 Se3,0.36319999999999997,160
6875,Bi4 Te3 Se3,0.3218999999999994,8
6876,Ca2 La3 Cu4 Ag1 O12,0.0,38
6877,K2 Na2 Mo12 H28 Pt2 O60,0.0,1
6878,Ba1 La1 Mn1 Ru1 O6,0.0,216
6879,Ca4 Mn5 Al1 Si6 O28,0.0,2
6880,Ba1 La1 Mn1 In1 O6,0.5992999999999995,216
6881,Ca12 Sc4 Fe4 Si12 O48,2.6315,206
6882,Ba3 Be1 Ir2 O9,0.0,164
6883,Ba6 Al2 Rh4 O15,0.0020999999999999908,38
6884,Al1 H12 C4 N1 F4,6.7547,1
6885,Ba6 Ca1 Eu2 Cu6 Hg3 O21,0.0,12
6886,As1 Pd6 Pb1,0.0,166
6887,Ba4 Cr13 O28,0.0,6
6888,Al1 In1 Cu1 O4,0.0,8
6889,Al1 P2 S6,0.0,5
6890,Ba11 Cu4 Bi9 O29,0.0,8
6891,Cu14 H18 S8 N8,0.8488000000000002,4
6892,Sr2 Cd1 Cu1 S2 O2,0.0,119
6893,Li4 Si4 P4 O20,4.9295,62
6894,O8 Al2 P2,4.9643999999999995,63
6895,Cd3 Te3,0.025100000000000122,152
6896,Si4 U4,0.0,62
6897,Li4 Sb4 Nd2,0.0,129
6898,O2 Pb1,0.0,225
6899,N4 Rh2,0.0,58
6900,Mn2 Co2 C1,0.0,123
6901,In2 Ni4,0.0,194
6902,Rh3 F9,0.5624,150
6903,Se48 Nb12 In4,0.0,128
6904,Cr6 As3,0.0,189
6905,U1 Te1,0.0,225
6906,S15 Fe8 Ba6,0.0,87
6907,C1 O1 S1,4.8952,160
6908,Al3 Ni2 U1,0.0,191
6909,Cu1 As1 Se2,0.3247,160
6910,C8 Cl64 W16,1.2971,61
6911,C2 N2 Th2,1.5202,12
6912,Se2 Te1 Bi2,0.9267000000000003,166
6913,Cr4 P8 O28,0.1661999999999999,11
6914,O32 P8 Fe6,0.0,2
6915,O28 P8 V4,1.4377000000000002,14
6916,B1 Pd3 Sm1,0.0,221
6917,Cr2 Ge2 Th1,0.0,139
6918,F1 O1 Pu1,0.0,216
6919,Cu1 Fe5 O8,0.0,166
6920,Cd2 Se8 Sm4,1.0448000000000004,122
6921,Ag6 O3,0.016199999999999992,1
6922,Ba2 La2 Zn1 W2 O12,3.0862,166
6923,N8 Ge6,1.9150999999999998,227
6924,O14 P4 Fe3,0.6099000000000001,2
6925,V12 Si4 Ni8,0.0,227
6926,Cr2 C6 N12 H18,1.9983,148
6927,Cu2 O4 H4,0.0,36
6928,Dy16 O40 Ti8,2.5157000000000003,1
6929,O14 P4 Mo2,1.2480000000000002,2
6930,Ni4 O48 P16,0.0,62
6931,Re1 K3 O2 C4 N4,2.3828,2
6932,Se6 N4 As4 F24,2.3161,5
6933,Ti12 O4,0.0,193
6934,Mg8 Si8 O24,3.7809000000000004,14
6935,As4 C4 S8 N8 O4 F20,2.8282999999999996,14
6936,As4 C16 S16 N16 Cl8 O8 F20,1.4993999999999998,14
6937,Na3 H5 C4 O8,4.4589,2
6938,Sb8 Ir2 C10 Cl2 O10 F44,2.9356999999999998,4
6939,S16 N8 O12 F4,1.3392,14
6940,Mg2 Al4 O8,4.8621,63
6941,Mg16 Si16 O48,3.8758,61
6942,Na4 Cd4 H12 C12 O24,4.3046999999999995,54
6943,Al8 S40 N40 Cl32,2.2857,62
6944,Sb16 Pt4 C16 O16 F88,3.5057,14
6945,Cr1 Ag1 S2,0.0,160
6946,Na16 Be8 Si8 O32,2.9149,29
6947,V2 H32 C12 N12 O14 F4,2.3148,2
6948,Fe2 H28 C8 N2 O2 F8,3.8232999999999997,2
6949,K4 W4 N4 Cl4 F20,3.5069999999999997,14
6950,Mn4 H44 C20 N4 O24,3.5460000000000003,33
6951,Tm1 Cr2 Si2,0.0,139
6952,Rh4 N8,0.0,14
6953,Cr3 In1 O8,0.26370000000000005,12
6954,Mg60 Al48 Ag38,0.0,200
6955,Sn4 H72 C24 Br12 N4,3.4837,57
6956,Na12 Mo4 H24 C24 O48,3.8578,56
6957,Sb8 H48 C16 I8,2.5887000000000002,61
6958,Co4 P8 O28,0.0,15
6959,Cs4 Pt2 C4 O8 F8,2.4733,1
6960,H32 Ru4 C20 N4 Cl12 O12,3.3049999999999997,14
6961,H24 C48,2.4614000000000003,14
6962,Sc10 In8 Ni4,0.0,1
6963,Cd8 H32 N64,3.2882,14
6964,Os4 C12 I4 O12,2.2723,11
6965,K2 Te2 O2 F6,3.9955000000000003,4
6966,Cs6 Mo10 P14 O48,1.4118000000000002,159
6967,Sr4 Ca8 In8 Ge4,0.0,52
6968,Pt2 Hg2,0.0,123
6969,Ba4 H8 O16,2.9433000000000002,14
6970,U3 H2 O10,1.7838999999999998,2
6971,Mo2 H1 O6,0.0,8
6972,Nb4 H4 O12,2.5130000000000003,1
6973,Mo2 H4 O8,2.2047,1
6974,C1 S1 O1,4.4961,1
6975,Rb2,0.0,12
6976,Gd1 Mn4 Cu3 O12,0.0,2
6977,Mn4 H36 C16 N4 O24,3.3661000000000003,62
6978,Li4 Fe6 P8 O28,3.605,14
6979,Ce4 P16 Cl52 O52,3.175,14
6980,Lu16 Se24,1.7495999999999996,122
6981,K18 U12 O45,1.3949000000000003,21
6982,Na8 Pt2 O8,0.0,1
6983,K2 Bi4 F14,3.581,1
6984,Ca3 H2 O6,2.9048999999999996,12
6985,Ca8 Si4 O16,3.7086,15
6986,Ba1 Bi4 O7,2.3709,8
6987,Pr9 Be4 O20,0.030899999999999928,1
6988,Cd2 Bi6 O11,0.7775999999999996,1
6989,La6 Fe4 S14,0.0,173
6990,Er1 H9 C5 N2 O8,4.4956,5
6991,K2 Bi3 F11,3.8253,1
6992,Gd8 Zr7 O26,2.1885,12
6993,Na2 U4 Cl12,0.0,1
6994,Na8 Al6 Si6 N2 O26,0.8347000000000002,6
6995,Li4 S2 O8,5.55,1
6996,Be4 Ga8 O16,2.4852,1
6997,Na4 Al12 Tl8 Si12 O48,2.9332000000000003,99
6998,Al12 Si12 Ag16 S5 O48,0.0014999999999998348,1
6999,Ba68 Al12 O28,0.0047000000000001485,138
7000,Si8 C32 S32 N32,3.5356,88
7001,Cu17 Se10,0.0,8
7002,Bi2 O3,1.1857999999999995,1
7003,U5 O11,0.0,1
7004,Sr21 Al36 O75,1.1673,143
7005,Ag13 Bi15 I64,0.0,1
7006,Sc13 Cu13 O33,0.0,8
7007,Zr50 Sc12 O118,3.5812999999999997,1
7008,Li1 Co1 P4 O12,0.8352999999999999,1
7009,Fe4 P8 O28,0.18420000000000003,14
7010,La3 Mo2 O10,1.7002999999999995,1
7011,Tl8 S4 O12,2.5793,14
7012,Mn8 Ni4 O16,0.0,8
7013,O6 Ba2 Pr2,0.0,74
7014,Ni2 P8 O24,0.13699999999999996,15
7015,Ag6 P12 H24 N6 O38,0.0,148
7016,Li20 Si2 P4 O24,5.2544,105
7017,Co4 P8 O28,0.2841,14
7018,La2 H26 C6 S6 O22,4.2977,2
7019,Cu8 H96 C40 S32 N8,1.6568999999999998,114
7020,Sr16 Fe16 O41,0.0,2
7021,Ni7 P6 O24,0.0,8
7022,Fe4 Co4 P4 O16 F4,0.0838000000000001,9
7023,Li1 Mn16 O32,0.0,8
7024,Nd4 P12 H48 O60,4.3711,14
7025,B4 H20 N8 F16,6.204,15
7026,Te4 H20 O24,0.4995,14
7027,H40 Ru2 C12 N2 O28,0.6942,63
7028,H24 C8 I2 N2,4.1779,129
7029,Fe2 P4 H16 O20,4.1734,14
7030,Co2 H32 C6 N16 O14,2.9404,9
7031,Mo12 H32 C16 S4 N8 Cl24 O28,1.1219999999999999,14
7032,Li8 Mo8 H48 N8 O40,2.8875,61
7033,Rb4 Ga4 Ge6 O20,2.1164,5
7034,Ta2 In6 O14,1.0756999999999994,20
7035,Hf8 N8 O4,0.34830000000000005,62
7036,Na2 Ga10 O16,1.5017999999999998,160
7037,Li4 Cu4 C4 O12,1.6143,14
7038,Nd2 O2,0.0,4
7039,Ta2 Cu1 O6,0.0,1
7040,Li2 Cu1 Bi1 O4,0.0,119
7041,Zr2 Br2 O2,0.0,166
7042,Pr1 Ti1 O3,0.0,221
7043,Na1 Pd1 O2,0.0,12
7044,Li1 Cu5 P2 O8,0.48829999999999973,1
7045,Hf8 N8 O4,0.08630000000000049,62
7046,Na4 Li4 O4,1.5957,87
7047,Pr2 Si2 O8,0.0,141
7048,Al4 Ga4 O12,2.6071,62
7049,Yb2 Pr2 O4,0.0,141
7050,Rb6 Pb2 O6,0.11729999999999974,12
7051,Li4 Nb1 Cu3 O8,0.0,12
7052,Li2 Cu2 Si8 O19,0.2105999999999999,1
7053,Li4 Nb4 P16 O48,0.9699,20
7054,Li8 Cu4 C4 O16,0.06919999999999993,14
7055,Li8 Nb4 P8 O32,1.1534000000000004,14
7056,Th1 Nb4 O12,1.3104,139
7057,Li2 Ti2 P8 O24,0.25039999999999996,4
7058,Li4 Cu4 P4 O16,0.3292999999999999,33
7059,Li2 Cu2 P2 O8,0.12919999999999998,9
7060,Li6 Ti6 P8 O32,0.0,15
7061,Li3 Cu9 C9 O27,0.0,1
7062,Li12 Cu12 P12 O48,0.018200000000000216,14
7063,Li9 Cu9 C9 O27,1.3639999999999999,1
7064,As6 H18 C6 S18 F36,2.7919,2
7065,Cu4 C4 O12,0.1027,14
7066,Li16 Fe4 Si1 O16,2.1387,1
7067,Mn8 Fe4 O24,0.0,2
7068,Fe2 Co2 O8,0.0,13
7069,Fe1 Co2 O6,0.0,12
7070,Li4 Fe4 C4 O16,1.962,37
7071,Li4 Co4 Si4 O16,0.7024999999999999,19
7072,Li3 Fe5 O10,0.4722999999999997,2
7073,Li2 Fe5 O10,0.0,2
7074,Li3 Fe6 Si6 O24,0.0,1
7075,Li8 Fe8 Si8 O36,0.01739999999999986,60
7076,Li4 Cr2 Si2 O8,1.6349,7
7077,Fe2 Cu1 As2 H2 O10,0.7757000000000001,2
7078,Fe5 O4 F8,0.3751,5
7079,Li8 V4 O8 F4,0.8643000000000001,1
7080,Li8 V4 O8 F4,0.9411,1
7081,Li8 V4 O8 F4,0.9741,1
7082,Li12 Mn2 O4 F8,2.6105,2
7083,Na4 Fe4 O10,0.0,46
7084,Co8 O8 F8,0.0,6
7085,Li4 Fe3 Te1 O8,1.7733000000000003,1
7086,V3 O4 F4,0.6841000000000002,6
7087,Li12 Mn2 O6 F4,2.3954,15
7088,Li5 Fe7 O3 F13,0.6779000000000002,8
7089,Li3 Co4 O8,0.8104999999999998,1
7090,Na8 Fe8 O20,0.0,62
7091,Li10 Mn5 Fe3 O16,0.7386999999999997,1
7092,Li12 V4 O10 F4,1.9696000000000002,7
7093,Co8 O8 F8,0.0,10
7094,Li4 Fe3 Cu2 Sb3 O16,0.0,1
7095,Li4 V8 O12 F4,1.0092000000000003,33
7096,Fe4 Co2 O12,0.0,136
7097,Li5 Fe2 Co5 O12,0.0,5
7098,Li4 Fe4 P4 O20,0.0,62
7099,Li5 Co5 Ni2 O12,0.0,1
7100,Li2 V1 F7,1.0091,44
7101,Mn2 H16 C4 S4 N4 O8,3.9825,14
7102,Li3 Co2 Cu1 O6,0.0,1
7103,Li2 Co3 Sn1 O8,0.0,160
7104,Li2 Ti4 V1 O8,0.0,12
7105,Li1 Ti4 V1 O8,0.0,2
7106,Si16 Ge16 O48,2.8185000000000002,61
7107,Fe3 Co5 O16,0.13949999999999996,10
7108,In4 Co4 O12,0.0,62
7109,Ti4 Cr4 O12,0.4272999999999998,62
7110,Rb12 Fe4 O12,0.9687999999999999,14
7111,Cr1 Ga1 O4,0.0,38
7112,Li12 Al2 Cr2 O12,2.9988,1
7113,Tl4 Co4 O12,0.0,2
7114,Sr12 W8 O36,2.6749,62
7115,Ge4 W4 O16,1.0688,52
7116,Cr1 Co3 O8,0.37539999999999996,166
7117,Li2 Fe3 Co1 O8,0.0,160
7118,Cu4 Ni2 O8,0.09189999999999987,15
7119,Li8 Mn4 B4 O16,0.9098999999999999,62
7120,Li1 Zn6 Fe17 O32,1.3452000000000002,8
7121,Cr5 Sb3 O16,0.2704,8
7122,Li4 Mn1 V3 O8,0.9354999999999998,1
7123,Li6 Nb3 Fe3 O16,0.013499999999999845,8
7124,Mn2 Co5 O12,0.0,5
7125,Li2 V2 Cu2 O8,0.0,12
7126,Li4 Nb2 V2 O8,0.0,74
7127,Li1 Co2 O4,0.0,160
7128,Li2 Mn1 Ni1 O4,0.29559999999999986,10
7129,Li3 Ni2 Sb1 O6,1.2584999999999997,12
7130,Li3 Fe1 Cu3 O8,0.0,166
7131,Ni1 Sn3 P4 O16,0.6127000000000002,6
7132,Ta4 In12 O28,0.9951999999999996,62
7133,Li4 Cu2 Sb2 P4 O16,1.1310000000000002,11
7134,Sr6 W4 O18,2.8234999999999997,11
7135,K8 Li4 Ti8 As8 O40,0.0,33
7136,Li4 Ti3 Cr1 O8,0.0,166
7137,Li8 Fe16 O32,0.0,1
7138,V5 O12,1.0074000000000003,5
7139,Li12 Bi4 S12,1.9514,198
7140,Li1 Ni9 S10,0.0,2
7141,Li3 Ti2 Cu1 O6,0.21549999999999958,12
7142,Li2 Mn1 Cu3 O8,0.0,166
7143,Li40 Sb8 S8,1.5770000000000002,14
7144,Mn3 Ni2 Te3 O16,0.0,1
7145,Li4 Mn3 Cu2 Sn3 O16,0.10020000000000007,8
7146,V3 Co1 Sn2 P6 O24,0.0,146
7147,Li4 Nb4 Cu4 O16,0.10179999999999989,95
7148,Li2 La3 Ti2 Nb2 O13,0.0,1
7149,Li4 Mn2 Nb1 Ni3 P6 O24,0.4878999999999998,1
7150,Mn3 Ni1 O4,0.09499999999999975,65
7151,Li8 Fe8 F40,0.44540000000000024,62
7152,Ti3 V5 O16,1.1384000000000003,1
7153,V18 O44,0.9038999999999997,1
7154,Li3 V2 Ni1 O6,0.0,12
7155,Li8 Fe2 O6 F2,2.6416,2
7156,Li4 V5 Sn1 O12,0.3014000000000001,12
7157,Ti3 Nb2 Cr3 O16,0.8117999999999999,1
7158,Co8 O8 F8,0.0,10
7159,Li2 As2 Pr1,0.0,164
7160,Li4 Ti2 V3 Cu3 O16,0.0,1
7161,Li9 Cr3 W7 O28,0.0,160
7162,Li4 Co2 B2 O8,0.9599000000000002,12
7163,Li2 Cu10 P4 O16,0.29000000000000004,6
7164,Fe4 O6 F2,0.0,12
7165,S2 K1 Sn1,0.0,160
7166,Ge8 N8 O4,1.7353,1
7167,Fe10 O4 F16,0.9391999999999998,1
7168,Ce8 W16 O64,1.4584000000000001,61
7169,Fe6 O7 F6,0.0,12
7170,Fe6 O4 F8,0.9337999999999997,136
7171,Fe10 O16 F4,0.0,4
7172,Co8 O12 F4,0.0,12
7173,Fe10 O16 F4,0.0,1
7174,Fe10 O16 F4,0.0,6
7175,Fe10 O16 F4,0.0,1
7176,Fe6 O10 F2,0.0,65
7177,Fe6 O10 F2,0.0,38
7178,Fe6 O10 F2,0.0,12
7179,Fe6 O10 F2,0.0,1
7180,Fe6 O10 F2,0.0,8
7181,Fe6 O10 F2,0.0,2
7182,Fe10 O15 F5,0.0,1
7183,Fe6 O10 F2,0.0,10
7184,Co6 O4 F8,0.04300000000000015,1
7185,Fe8 O12 F4,0.0,63
7186,Fe8 O14 F2,0.0,12
7187,Li6 Fe12 Si12 O48,0.0,3
7188,Fe6 O10 F2,0.0,6
7189,Li4 Mn2 Nb2 O8,0.0,15
7190,O12 Ca4 Ge4,2.0247,62
7191,Na6 Co4 O8,0.013600000000000279,63
7192,Li8 Cu4 Si16 O40,0.7199,11
7193,Co6 O4 F8,0.0,2
7194,Li14 Co4 O12,0.40870000000000006,21
7195,Li16 Fe12 O4 F32,2.6677,31
7196,Li4 Cr3 Fe3 O12,0.0,22
7197,Li5 Ti3 V2 P6 O24,0.19599999999999973,1
7198,Li6 Fe12 Si12 O48,0.005599999999999938,181
7199,Li5 Co2 O2 F5,0.0,139
7200,Li6 Cr6 Ni3 O18,0.0,12
7201,Li2 Mg11 W12 O48,3.5656,6
7202,Li8 V4 O8 F4,1.814,9
7203,Ta1 Tl1 O3,0.6811000000000007,221
7204,Rb4 V4 Ga4 P8 O40,0.6353000000000001,14
7205,Tm2 Mg1 Ir1,0.0,225
7206,Dy1 Th1 Tc2,0.0,225
7207,Er1 Nb1 Os2,0.0,225
7208,B4 S6,1.5239999999999998,167
7209,Ca8 Sn4 S16,2.0269999999999997,14
7210,La6 Cr2 W2 S6 O12,1.3700999999999999,176
7211,K2 U2 O5,0.0,123
7212,Mo4 H72 C20 N16 O16,4.6578,198
7213,V3 Co5 O16,0.0,8
7214,Se2 Rh2,0.0,194
7215,O10 Al4 Si2,5.4620999999999995,63
7216,Cr6 Rh2,0.0,223
7217,Zn1 Hg3,0.0,139
7218,Yb2 Co2 O5,0.0,123
7219,K1 Sr3,0.0,225
7220,K3 Sn1,0.0,225
7221,K1 Ru1 O3,0.0,221
7222,Na2 Mg6,0.0,194
7223,Rb3 Cd1,0.0,225
7224,Pr1 Sb3,0.0,221
7225,O6 Re2,0.0,182
7226,Ni6 Au2,0.0,194
7227,Sm2 Ge6,0.0,194
7228,Ti3 Nb1,0.0,139
7229,Ho1 Hf1 Os2,0.0,225
7230,Y6 Sn2,0.0,194
7231,Hf1 H3,0.0,139
7232,Al1 Fe2,0.0,191
7233,Ag1 Bi1 S2,0.0,123
7234,Rb1 Na1 H2,2.0716,123
7235,Ca2 Mn2 W2 O12,0.9099999999999999,7
7236,Ca8 Cr8 Si12 O48,0.6471999999999998,142
7237,Mn6 Nb4 O18,0.44419999999999993,158
7238,Ca1 Mn4 O8,0.0,8
7239,Mg1 Ni4 S8,0.0,166
7240,Mg1 V6 Fe4 O24,0.0,2
7241,Mg4 Ag2 Sb2 O12,0.32759999999999945,11
7242,Mg2 Cr3 O8,0.16400000000000015,12
7243,Mg6 Bi4 O14,0.11830000000000052,36
7244,Ca2 Ti10 O14,0.0,63
7245,Y8 Mn12 Si12 O48,3.644,230
7246,Mg12 V8 Ge12 O48,0.0,230
7247,Zn12 Ge12 Mo8 O48,1.3045,230
7248,Ca6 Si8 Sn4 O28,2.1922000000000006,15
7249,Ca4 Al2 Ag2 O10,0.0,1
7250,Bi2 P4 O14,0.0,2
7251,Mg4 Co4 As4 O20,1.0289000000000001,1
7252,Mg3 Cr6 Fe4 O24,0.0045999999999999375,2
7253,Zn4 Ag8 P8 O36,0.1725000000000001,11
7254,Tc1 B1,0.0,187
7255,Ge4 Th2,0.0,141
7256,Ba3 Bi1 P1,0.0,221
7257,Na1 Mg3,0.0,25
7258,Mg3 Bi1,0.0,25
7259,La1 Mg7,0.0,187
7260,Mg6 Bi1 Sb1,0.0,38
7261,Na1 Mg6 Bi1,0.0,38
7262,Mg6 Ga1 Sb1,0.0,38
7263,Sr1 Rh1 O3,0.0,221
7264,Y1 B1 Pt3,0.0,221
7265,Eu2 Zn2 Ge2,0.0,51
7266,Ce1 Mg6 Cd1,0.0,38
7267,Li1 Mg6 Bi1,0.0,38
7268,Mg6 Sn1 Sb1,0.0,38
7269,Mg6 Zr1 Bi1,0.0,38
7270,Na1 Mg6 Zr1,0.0,38
7271,Mg6 Zn1 Sb1,0.0,38
7272,Y1 Mg6 Zn1,0.0,38
7273,K1 Mg15,0.0,187
7274,Si3 Pt6,0.0,189
7275,Th1 B2 Pd2 C1,0.0,139
7276,Ce2 Cu3 Ge3,0.0,38
7277,Te2 Mo1 W2 Se2 S2,0.30230000000000024,156
7278,Te2 Mo2 W1 Se2 S2,0.0253000000000001,156
7279,Te2 Mo1 W2 Se2 S2,0.2852000000000001,156
7280,Te2 Mo2 W1 Se2 S2,0.3221000000000003,156
7281,Te2 Mo2 W1 Se2 S2,0.38019999999999987,156
7282,Mg14 Ti1 Ga1,0.0,187
7283,Mg14 Ti1 Sb1,0.0,187
7284,K1 Li1 Mg14,0.0,38
7285,Hf1 Mg14 Ga1,0.0,187
7286,Mg14 Nb1 Bi1,0.0,187
7287,Sr1 Mg14 Ga1,0.0,187
7288,Na1 Sr1 Mg14,0.0,38
7289,La1 Hf1 Mg14,0.0,38
7290,Na1 La1 Mg14,0.0,38
7291,Sr1 La1 Mg14,0.0,187
7292,Na1 Ce1 Mg14,0.0,38
7293,Te4 Mo1 W3 Se2 S2,0.0,156
7294,Te4 Mo1 W3 Se2 S2,0.18030000000000035,156
7295,Mg14 Zr1 Ti1,0.0,187
7296,La1 Mg14 Zr1,0.0,187
7297,Mg14 Nb1 Zn1,0.0,187
7298,Mg14 Zn1 Cr1,0.0,187
7299,Y1 Mg14 Cr1,0.0,38
7300,Ce1 Mg14 Zr1,0.0,187
7301,Ca1 Hf1 Mg14,0.0,187
7302,Mg14 Zr1 Mn1,0.0,38
7303,Mg14 Mn1 Al1,0.0,38
7304,Mg14 Ti1 Al1,0.0,38
7305,Sr1 Mg14 Al1,0.0,187
7306,Mg14 V1 Cd1,0.0,38
7307,Li1 Mg14 V1,0.0,187
7308,Mg14 V1 Sn1,0.0,187
7309,Mg14 Co1 Bi1,0.0,187
7310,Te4 Mo1 W3 Se2 S2,0.007000000000000117,156
7311,Te4 Mo1 W3 Se2 S2,0.0,156
7312,Te4 Mo1 W3 Se2 S2,0.0,156
7313,Na1 Mg6 Ti1 O8,0.0,123
7314,Mg6 Cr1 Cu1 O8,0.0,123
7315,Li1 Y1 Mg6 O8,3.0373,123
7316,Mg14 Ti1 Cr1 O16,0.0,123
7317,Na1 Mg14 Bi1 O16,2.3131999999999993,123
7318,Mg14 Ti1 Zn1 O16,0.0,123
7319,Mg14 Ti1 Zn1 O16,0.0,47
7320,Li1 Hf1 Mg14 O15,0.0,25
7321,Mg14 Ti1 Co1 O16,0.0,47
7322,Sr1 Mg14 Cu1 O16,0.0,47
7323,Na1 Li1 Mg14 O15,1.6332,25
7324,Li1 La1 Mg14 O16,3.3859000000000004,123
7325,Li1 La1 Mg14 O16,3.2131,47
7326,Mg14 Ti1 Fe1 O16,0.0,47
7327,Mg14 Ti1 Fe1 O16,0.0,123
7328,Y1 Mg14 Co1 O16,0.5325999999999995,47
7329,Y1 Mg14 Co1 O16,0.2705000000000002,123
7330,Mg14 Al1 Zn1 O16,0.0,123
7331,Mg14 Mn1 Al1 O16,0.14509999999999934,47
7332,Ca1 Mg14 Al1 O16,0.067499999999999,47
7333,Sr1 Mg30 Sn1 O32,1.1266000000000007,123
7334,Hf1 Mg30 Ni1 O32,0.019999999999999574,123
7335,Mg30 Co1 Si1 O32,0.43210000000000015,123