Index,Composition,bandgap,spgN
25097,Li4 Mn2 Cr6 O16,0.08610000000000007,186
25098,Ti16 N16 O8,0.9375999999999998,1
25099,Li12 Sb4 S12,2.3579999999999997,14
25100,Nb1 Fe3 P6 O24,0.0,146
25101,Cr2 Fe3 Cu1 P6 O24,0.5381,146
25102,Cr2 Fe3 Ni1 P6 O24,0.0,146
25103,Ti3 Nb1 Cu2 P6 O24,0.011499999999999844,146
25104,Cr2 Fe3 Co1 P6 O24,1.7352,146
25105,Sc2 Ag2 O6,0.3578999999999999,38
25106,Zr12 N12 O6,1.0257000000000005,1
25107,Ti16 N16 O8,0.9614000000000003,1
25108,Mn6 O8 F4,0.0,14
25109,Li4 V5 Co3 O16,1.2870999999999997,1
25110,Na8 Mn2 O8,0.7255,7
25111,Sn16 N16 O8,0.10289999999999999,1
25112,Cr4 O6,2.137,148
25113,Ba4 Y4 F20,6.6724000000000006,4
25114,Li12 Fe4 B32 O60,3.1956999999999995,14
25115,Li8 Cr12 Cu4 O32,0.5247999999999999,1
25116,Li2 Fe8 O2 F14,2.5323,4
25117,Li4 V4 F24,3.1431,14
25118,Li4 Mn2 P2 H2 O10,3.2607000000000004,2
25119,Li2 Fe2 F8,3.4054,1
25120,Co6 O2 F10,0.15470000000000006,12
25121,Li5 Mn8 B8 O24,0.5302000000000002,1
25122,Li4 Ti3 Co3 Sn2 O16,0.2580999999999998,1
25123,Li8 V4 F20,2.447,14
25124,Mn12 O7 F17,0.12339999999999995,1
25125,Mn8 O8 F8,0.022599999999999953,14
25126,Co6 O2 F10,0.0,10
25127,Pr8 Hf8 O32,0.19340000000000002,1
25128,Na32 V8 O28,0.44209999999999994,14
25129,Li24 Bi8 P16 O64,4.2483,14
25130,Mn6 O7 F5,0.17649999999999988,1
25131,Ni2 Te2 P4 O16,2.9147,11
25132,Ga12 N4 O12,0.9003000000000001,1
25133,Li4 Fe2 P2 H2 O10,3.8225,2
25134,Li16 Mn4 H24 S16 O72,4.5112,56
25135,Li4 V8 O4 F20,1.0131000000000001,1
25136,Mn12 O7 F17,0.11939999999999995,1
25137,Li8 Fe8 B8 O28,2.1347000000000005,14
25138,Li4 V8 O4 F20,0.6409,1
25139,Li2 Cr2 P8 O24,2.8150999999999997,15
25140,Li6 Mn2 V2 P6 O24,0.7543000000000002,2
25141,Li2 Cr3 P9 O28,2.9882999999999997,2
25142,Li6 Mn2 V2 P6 O24,0.3245,9
25143,Na8 Fe4 O12,0.6359000000000001,14
25144,Li4 Fe4 B4 O12,2.9857,14
25145,Li2 V8 O10 F14,0.5956000000000001,1
25146,Mn12 O7 F17,0.09499999999999997,1
25147,Na10 Ni4 As2 C8 O32,0.0,43
25148,Fe10 O4 F16,1.1013,1
25149,Li12 Mn4 V4 P12 O48,0.3859999999999997,1
25150,Li8 Cu4 P4 O16,1.2004000000000001,1
25151,Li10 Mn2 O8,1.4388999999999998,31
25152,Mn8 O14 F2,0.0,9
25153,Li7 Cr3 Fe1 P6 O24,1.5433,146
25154,Na16 Ni8 O20,0.7638,14
25155,Li4 Mn6 B6 O18,0.0,2
25156,Li4 Cr2 Fe3 O10,0.9619999999999997,1
25157,Li4 Co8 O4 F20,0.8738,9
25158,Ho12 B12 O36,5.0472,2
25159,Na12 Bi4 B8 As2 O32,0.0,203
25160,Fe10 O11 F9,0.0,1
25161,Li6 Mn2 V2 P6 O24,0.3342999999999998,5
25162,Li2 V2 P8 H24 O36,2.9371,15
25163,Li10 Ni8 O16,0.0,1
25164,Li3 Mn3 P4 O16,1.1330999999999998,2
25165,Fe8 O8 F8,1.7701999999999998,4
25166,Fe8 O8 F8,1.7539,4
25167,Ta8 Nb8 O40,2.487,14
25168,Na4 W1 O4,3.0486000000000004,87
25169,Li4 Mn1 P6 O18,4.5343,1
25170,Li2 V2 F8,2.0968999999999998,63
25171,Li12 V24 O12 F60,1.1741999999999997,1
25172,F6 K2 Hf1,6.8346,189
25173,V6 O8 F4,0.49650000000000016,38
25174,Li2 Mn6 P12 O40,0.02020000000000001,41
25175,Mn12 O7 F17,0.13359999999999994,1
25176,Y4 Nb8 N4 O20,2.2861000000000002,1
25177,La8 Nb8 N8 O20,1.6707,1
25178,Li1 V4 O1 F11,0.6551,3
25179,Mn8 O14 F2,0.0,4
25180,Mn8 O14 F2,0.0,7
25181,Fe8 S10,0.002700000000000008,1
25182,Li3 Fe8 B8 O24,1.6325999999999998,1
25183,Li8 Fe4 O4 F12,2.3404,76
25184,Li5 Mn8 B8 O24,0.0403,1
25185,Li14 V2 Ge2 O16,2.7390999999999996,6
25186,Li32 Cr8 P16 O72,0.9377000000000001,61
25187,Nb4 H32 N8 O8 F20,4.5788,62
25188,Li2 Fe4 O4 F6,1.641,12
25189,Li2 Mn8 P6 O24,2.7473000000000005,173
25190,Mn12 O5 F19,0.0,1
25191,Li24 Fe24 Si24 O96,2.9513000000000003,169
25192,Li8 Si24 Ni8 O60,3.8406999999999996,64
25193,Mn6 O4 F8,0.0020999999999999908,4
25194,Li8 V4 F16,2.6201999999999996,14
25195,Li6 P14 W10 O58,2.2116999999999996,1
25196,Li5 Si2 Bi1 O8,2.7600999999999996,5
25197,Li4 Ni1 P6 O18,3.8620999999999994,1
25198,Pr2 Zn1 Ir1,0.0,225
25199,Li4 Mn2 Sn2 P4 O16,3.0587000000000004,11
25200,Li12 Fe12 Si18 O54,2.5827000000000004,145
25201,Eu1 Sn1 O3,0.0,221
25202,Ce2 Ag6,0.0,194
25203,Sc1 Tc2 Mo1,0.0,225
25204,Li1 Tc1 O3,0.0,221
25205,Sm2 H64 C16 N8 Cl14,4.8246,18
25206,Li2 Si2 Bi2 O8,3.4051,159
25207,Co4 I8 O24,2.5895,14
25208,Li4 Ni2 P8 O24,4.5393,14
25209,Li2 Ni8 P6 O24,0.005599999999999827,2
25210,Nd2 Cu1 Ir1,0.0,225
25211,Li6 Cr3 Fe3 O12,1.9890999999999996,1
25212,Tm2 Co1 Os1,0.0,225
25213,Y2 Mg1 Ru1,0.0,225
25214,Y2 Br6,2.9454000000000002,194
25215,H68 C38,5.679,4
25216,La2 Ag1 Ru1,0.0,225
25217,Mn4 Co12 O32,0.9382999999999999,1
25218,O8 Ti4,2.4757000000000007,62
25219,F8 Mg2 Eu2,0.28580000000000005,63
25220,Sm1 Bi3,0.0,139
25221,Sc2 Au6,0.0,194
25222,Nd2 Ir1 Au1,0.0,225
25223,La6 Mg2,0.0,194
25224,Li3 Ca1,0.0,225
25225,Sm1 Tm1 Ru2,0.0,225
25226,Nb8 Ag4 O22,2.3722999999999996,161
25227,Ac6 Sm2,0.0,194
25228,La8 Al7 In1 O24,3.3008000000000006,221
25229,Tl1 In1 Cl3,0.0,1
25230,K6 O3,1.8499999999999999,143
25231,Mn1 Fe3,0.0,123
25232,Ca3 Co2 Si4 O14,1.4669999999999999,8
25233,Ti4 Cu3 O12,0.0,204
25234,La2 Ti1 Zn1 O6,3.0898000000000003,148
25235,Al14 Cu3 Se24,0.0,8
25236,Ca4 V16 Co8 O56,1.1289,14
25237,Ti4 O8,2.5323,87
25238,Mg2 Mo2 F10,3.7721,15
25239,V2 F10,2.7003000000000004,1
25240,Zn3 Cu10 Te6 O36,0.0,1
25241,Y16 Cu6 Si6 Se42,0.0,1
25242,Ca1 Sb1 F6,0.0,148
25243,Mg8 Ti16 O32,0.0,8
25244,Mg8 Co16 O32,0.7330000000000001,8
25245,Zn2 In4 Se8,0.03180000000000005,227
25246,Hf1 Ir1,0.0,221
25247,Ge8 Tb4,0.0,65
25248,Ca4 Mn16 O32,0.3224,4
25249,Ba3 Bi1 N1,0.0,221
25250,Ba3 Sb1 N1,0.0,221
25251,Li4 Fe8 P8 O36,0.008000000000000007,62
25252,Li2 Co6 P6 O26,0.0,11
25253,Eu2 O3,0.0,164
25254,Eu2 Zn2 Ge2,0.0,47
25255,Gd2 S4,0.0,129
25256,Li1 Mg6 Sn1,0.0,38
25257,Li1 Mg6 Zn1,0.0,38
25258,Sr1 Y1 Mg6,0.0,38
25259,La1 B2 Pd2 C1,0.0,139
25260,Np1 B6,0.0,221
25261,Mg14 Sn1 Sb1,0.0,187
25262,Mg14 Ga1 Cu1,0.0,38
25263,Te4 Mo4 Se2 S2,0.10150000000000015,156
25264,Te2 Mo3 W1 Se4 S2,0.0,156
25265,Te2 Mo2 W2 Se4 S2,0.0,156
25266,Te2 Mo3 W1 Se4 S2,0.0,156
25267,Te2 Mo2 W2 Se4 S2,0.0,156
25268,Te2 Mo3 W1 Se4 S2,0.0,156
25269,Te2 Mo2 W2 Se4 S2,0.0,156
25270,Te2 Mo3 W1 Se4 S2,0.0,156
25271,Te4 Mo4 Se2 S2,0.13559999999999972,156
25272,Te4 Mo4 Se2 S2,0.0,156
25273,Te2 Mo3 W1 Se4 S2,0.0,156
25274,Te2 Mo3 W1 Se4 S2,0.0,156
25275,Te4 Mo4 Se2 S2,0.22870000000000035,156
25276,Te2 Mo3 W1 Se4 S2,0.0,156
25277,Mg14 Zn1 Sb1,0.0,187
25278,Y1 Mg14 Zr1,0.0,38
25279,Na1 Mg14 Al1,0.0,187
25280,Te4 Mo1 W3 Se4,0.1368999999999998,156
25281,Te4 Mo1 W3 Se4,0.07240000000000002,156
25282,Te4 Mo1 W3 Se4,0.014100000000000001,156
25283,Te2 Mo2 W2 Se4 S2,0.0,156
25284,Te4 Mo1 W3 Se4,0.13239999999999963,156
25285,Te2 Mo2 W2 Se4 S2,0.0,156
25286,Te4 Mo1 W3 Se4,0.07739999999999991,156
25287,Te2 Mo2 W2 Se4 S2,0.0,156
25288,Te2 Mo3 W1 Se4 S2,0.0,156
25289,Te4 Mo1 W3 Se4,0.08549999999999969,156
25290,Te2 Mo3 W1 Se4 S2,0.0,156
25291,Te2 Mo3 W1 Se4 S2,0.30569999999999986,156
25292,Te2 Mo3 W1 Se4 S2,0.0,156
25293,Mg14 V1 Ni1 O16,0.8666,123
25294,Mg14 V1 Ni1 O16,0.1706000000000003,47
25295,Li1 Mg14 W1 O16,2.5733999999999995,123
25296,Mg14 V1 Cu1 O16,0.0,47
25297,Ca1 Mg14 Cr1 O16,1.4857000000000005,123
25298,Mg30 Nb1 V1 O32,0.4060000000000006,123
25299,Mg30 Ti1 Cu1 O32,0.24739999999999984,123
25300,Mg30 Mn1 Nb1 O32,0.6293000000000006,123
25301,Mg30 Al1 Cd1 O32,0.0,123
25302,Ca1 Y1 Mg30 O32,0.33309999999999995,123
25303,Sr1 Ca1 Mg30 O32,3.9281999999999995,123
25304,Ce8 Mg4,0.0,8
25305,Mg2 Al6,0.0,139
25306,Ca6 Mg6,0.0,38
25307,Ca8 Mg4,0.0,63
25308,Na1 Hf1 Mg30 O31,0.5741000000000005,25
25309,Na1 La1 Mg30 O32,4.013300000000001,123
25310,Li1 Hf1 Mg30 O31,0.022800000000000153,25
25311,Li1 Mg30 Si1 O32,0.4070999999999998,123
25312,K1 Mg30 Ga1 O32,4.1714,123
25313,H4 Pb1 I3 N1,2.1129,1
25314,Ca6 Mn12 O24,0.0,1
25315,Ca6 Fe12 O24,1.3037,1
25316,Mg2 Sn2 P4 O14,3.3807,2
25317,Mg4 Mn8 O16,0.9447999999999999,57
25318,V2 Zn2 P4 O14,1.6703999999999999,2
25319,Ba1 Y1 Cu2 O5,0.0,99
25320,Mg8 V8 Bi8 O40,2.9565,61
25321,Mg4 Cr6 O16,0.8362000000000003,186
25322,Ge4 Bi2 O12,0.0,15
25323,Ti4 Zn4 Ge8 O24,2.0269,14
25324,Ca2 Ti4 O10,2.7445,63
25325,Ti4 Zn4 Ni4 P8 O36,3.0155,62
25326,Co4 Cu3 O12,0.0,204
25327,Mg4 Mn4 Ni4 P8 O36,0.026899999999999924,1
25328,Mg1 Co4 Cu3 O12,0.0,204
25329,Ca4 Ti12 O28,2.854,62
25330,Ca4 Ti4 Bi4 O20,0.0,14
25331,Pr2 Mg2 Mo4 O12,1.1494,7
25332,Pr2 Zn2 Mo4 O12,1.1840000000000002,7
25333,Ho2 Mg2 Ti4 O12,0.0,31
25334,Zn6 Cu12 O24,0.0,156
25335,Ca2 Cr4 S8,0.3849999999999998,74
25336,Y1 Ti4 Cu3 O12,0.0,204
25337,Ca2 W4 O12,1.1728,1
25338,Ta4 Zn4 Sn2 O16,2.465,1
25339,Ca4 Ta4 Mn2 O16,3.3712999999999997,1
25340,Ti2 Zn2 Si2 O10,3.0146,1
25341,Nb4 Zn4 Cr2 O16,1.0086999999999997,1
25342,Ca4 Mn2 Nb4 O16,2.7039,1
25343,Cr6 P6 O26,0.0,11
25344,Ba6 Y3 Cr6 F33,3.1167,145
25345,Hg1 Pt3,0.0,65
25346,Pb2 S2,1.6540000000000001,12
25347,Zr2 Cl2,0.0,164
25348,U1 B1 Rh3,0.0,221
25349,Ho2 Cu2 Pb2,0.0,194
25350,Sr12 Ca20 Ti12 Mn20 O80,0.1434000000000002,1
25351,Sr16 Ca16 Ti8 Mn24 O80,0.0,1
25352,Sr12 Ca20 Ti4 Mn28 O80,0.0,1
25353,Nd2 Sn2 Au2,0.0,194
25354,K2 Cu1 F4,0.0,65
25355,Mn1 In2 Se4,0.0,160
25356,H6 C2 Br2,4.5392,36
25357,Co1 Rh2 Se4,0.0,12
25358,La2 Co2 Sb4,0.0,129
25359,Te2 Mo3 W1 Se4 S2,0.07290000000000019,156
25360,Sr2 Zr1 Cr1 O6,0.0,139
25361,Ti2 Si2 Ag4 O10,1.3384,129
25362,La8 Mg4,0.0,15
25363,Y8 Mg4,0.0,12
25364,Mg5 Zn1,0.0,189
25365,Mg4 Ga8,0.0,12
25366,Mg2 Ga4,0.0,189
25367,Mg4 Ga8,0.0,63
25368,Mg32 Al26,0.0,217
25369,Mg3 Zr1,0.0,221
25370,Ca10 Mg2,0.0,38
25371,K1 Mg30 Ti1 O32,0.6493000000000002,123
25372,Ba4 Sr4 Co1 Cu7 O24,0.0,8
25373,Ca2 Sn3 S8,1.1176,12
25374,Ti1 Te1 Ru1,0.7621999999999991,216
25375,Zn12 Mo12 O32,1.1894999999999998,12
25376,V4 O8,0.0,12
25377,Tm24 Si24 O84,4.514,2
25378,Ti1 Zn1 Bi2 O6,2.9049000000000005,38
25379,Zn2 Ni11 O13,1.9571999999999994,71
25380,W2 N4,1.1383999999999999,122
25381,V4 F20,2.7746000000000004,14
25382,V4 F16,1.8791,14
25383,Ti3 Mn1 Cr2 P6 O24,0.0,146
25384,V4 Co1 Cu1 O12,0.34340000000000004,5
25385,Ti3 Fe2 Sn1 P6 O24,0.01839999999999975,146
25386,Sc2 H2 O4,4.0372,11
25387,Sb6 O8 F2,2.4653,15
25388,Nb1 V2 Fe3 P6 O24,0.8736999999999999,146
25389,Li2 Ni2 P8 O24,0.0,12
25390,Fe12 P16 O60,0.0,33
25391,N3 O6 K1 Cd1,2.305,146
25392,V8 Ni4 O18,0.8185000000000002,9
25393,Pb4 O8,0.0,62
25394,P4 Ru4 Se4,0.21969999999999956,14
25395,H2 Pb4 I2 O4,2.3352999999999997,12
25396,Li12,0.0,64
25397,Nb8 Ni2 P2,0.0,124
25398,Sr3 Ta1 H1 O6,3.5432,8
25399,V4 Cu2 S8,0.0,44
25400,V2 P2 O10,1.3830999999999998,15
25401,Tl1 V4 Fe1 S8,0.0,12
25402,Ce10 Si6,0.0,63
25403,Th10 Pb6,0.0,193
25404,Na2 Li1 Tl1 F6,3.372,225
25405,Rb2 Ag1 Sb1 F6,2.1677,225
25406,Rb2 Pr1 Ag1 F6,2.6714,225
25407,K3 Mo1 Cl6,1.6199000000000001,225
25408,K2 Na1 Ce1 Cl6,0.32779999999999987,225
25409,K2 Li1 Ce1 Br6,0.2916000000000003,225
25410,K2 Tl1 Pd1 F6,0.0,225
25411,Cs1 Rb2 Sc1 Cl6,4.094,225
25412,K2 Y1 Cu1 Br6,2.1374999999999997,225
25413,K2 Sm1 Ag1 Cl6,3.3742,225
25414,K2 Sc1 In1 F6,3.5397,225
25415,Cs2 Tl2 I6,0.0,225
25416,Cs3 La1 Cl6,4.7164,225
25417,Cs2 In1 Sb1 Cl6,0.8763999999999998,225
25418,Cs2 Cu1 Bi1 I6,0.35309999999999997,225
25419,Cs3 Al1 Cl6,4.541300000000001,225
25420,Cs1 Rb2 Y1 F6,5.3347,225
25421,Cs2 Tl1 Au1 I6,0.0,225
25422,Rb2 Sc1 Hg1 Br6,0.0,225
25423,Rb2 Ce1 Cu1 Br6,0.2402000000000002,225
25424,Rb2 Al1 In1 Cl6,2.838,225
25425,Rb3 In1 Br6,2.5162,225
25426,Eu1 Rb3 Cl6,0.0,225
25427,Li4 Fe2 P2 O8 F2,4.0879,1
25428,Li4 V2 P2 O8 F2,2.9961999999999995,1
25429,Nd4 Nb12 O36,1.7955999999999999,2
25430,Li4 Mn2 O6,0.851,2
25431,Li6 Mn2 Co2 O10,1.0924,1
25432,Li6 Mn4 O10,0.07319999999999993,12
25433,Li4 Mn1 Co3 O8,0.7337000000000002,2
25434,Li6 Mn2 Co2 O10,0.8508,5
25435,Li6 Mn2 Co2 O10,1.1157,1
25436,Li6 Mn2 Co2 O10,1.2405,2
25437,Li6 Mn2 Co2 O10,1.1333000000000002,1
25438,Li7 Co5 O12,0.6470000000000002,2
25439,Li7 Co5 O12,0.5746000000000002,2
25440,Li7 Mn2 Co3 O12,0.7626,5
25441,Li7 Mn2 Co3 O12,0.8827000000000003,5
25442,Li7 Mn2 Co3 O12,0.9918999999999998,1
25443,Li7 Mn4 Co1 O12,0.2844000000000002,2
25444,Li7 Mn4 Co1 O12,0.38339999999999996,2
25445,Li7 Mn4 Co1 O12,0.5061,1
25446,Li7 Mn4 Co1 O12,0.3937000000000004,1
25447,Li7 Mn4 Co1 O12,0.4276,8
25448,Li7 Mn4 Co1 O12,0.13919999999999977,6
25449,Li7 Mn4 Co1 O12,0.0,8
25450,Li7 Mn4 Co1 O12,0.5084,8
25451,Li9 Co7 O16,0.8632999999999997,1
25452,Li7 Mn5 O12,0.09499999999999975,12
25453,Li9 Co7 O16,0.12659999999999982,2
25454,Mn8 O8 F8,0.09240000000000004,8
25455,Mn1 Fe3 Sb2 P6 O24,0.0,146
25456,Li2 V6 O2 F22,0.009699999999999931,1
25457,Li2 V6 O2 F22,0.0029000000000000137,1
25458,Li3 V6 O3 F15,1.6774999999999998,1
25459,Li4 Mn4 B4 O12,2.2979000000000003,14
25460,Li1 Fe5 O5 F1,0.8121999999999998,8
25461,Li2 Fe4 F10,2.9784,15
25462,Li2 Fe4 O2 F6,2.4342,12
25463,Li12 Mn2 V6 P12 O48,0.03049999999999997,7
25464,Li12 Mn2 V6 P12 O48,0.0,3
25465,Li6 Mn1 Co3 P6 O24,0.7479000000000002,1
25466,Li12 Mn2 V6 P12 O48,0.30089999999999995,1
25467,Li12 Mn2 V6 P12 O48,0.3044000000000002,1
25468,Li12 Mn2 V6 P12 O48,0.3247,1
25469,Li12 Mn2 V6 P12 O48,0.32889999999999997,1
25470,Li5 Mn8 B8 O24,0.0,1
25471,Li12 Mn2 V6 P12 O48,0.3822000000000001,1
25472,Li10 Co8 Si8 O32,0.37359999999999993,9
25473,Li8 V6 O2 F22,0.16659999999999997,1
25474,Li4 Cr3 Co3 Sn2 O16,0.0,1
25475,Li6 V4 H8 O4 F20,0.6956,7
25476,Li6 Mn2 V2 P6 O24,0.4945000000000004,2
25477,Li12 Mn4 V4 P12 O48,0.5629,1
25478,Li12 Mn4 V4 P12 O48,0.5641000000000003,1
25479,Li12 Mn4 V4 P12 O48,0.4962,1
25480,Li3 Fe1 Cu4 O8,0.0,12
25481,Li8 Ni12 W4 O32,0.30120000000000013,1
25482,Li2 Ti3 Nb1 O8,0.0,166
25483,Li4 Mn4 P4 H24 O30,1.2248,1
25484,Li17 Fe4 C16 O48,0.015,1
25485,K2 Bi2 P2 C2 O14,0.0,4
25486,Fe12 O12 F12,1.4674,6
25487,Te8 O24,0.8336999999999999,33
25488,Tl8 P4 O16,1.6382,7
25489,Sr1 H16 O10,3.1452999999999998,1
25490,Li2 Ga3 Te6 H12 O24,0.0,146
25491,Fe12 O16,0.0,10
25492,K6 Na2 Fe2 Cl12,0.09709999999999996,2
25493,Ca2 H32 O20,3.7883999999999998,1
25494,Ba1 V13 O18,0.3064,1
25495,Al8 W12 O48,4.5577,4
25496,Ac3 Er1,0.0,139
25497,Ba1 F3,0.0,139
25498,Eu2 Ag1 Pt1,0.0,225
25499,Cs2 Rb6,0.0,194
25500,Eu2 Zn1 Ir1,0.0,225
25501,Fe8 Ni4 B4,0.0,82
25502,Ho6 Th2,0.0,194
25503,Hf1 Mg16 Al12,0.0,160
25504,K1 Rb3,0.0,221
25505,Li1 Th1 Pt2,0.0,225
25506,Lu1 Sc1 Ir2,0.0,225
25507,Eu2 Mn2 O5,0.0,123
25508,Mg16 Al12 Hg1,0.0,160
25509,Mg16 Al12 Si1,0.0,160
25510,Mg16 Zr1 Al12,0.0,160
25511,Nd3 Cd1,0.0,139
25512,Nd3 Mg1,0.0,221
25513,Nd5 Mg1,0.0,6
25514,Sc1 Ag3,0.0,225
25515,Sc2 Pb6,0.0,194
25516,Sn6 Pb2,0.0,194
25517,Sr1 Ca3,0.0,225
25518,Sr1 Eu3,0.0,225
25519,Ti1 Au3,0.0,139
25520,Tl3 Au1,0.0,221
25521,Yb1 Pm3,0.0,139
25522,Yb1 Mg3,0.0,225
25523,U2 Sb6,0.0,194
25524,Ho4 Mo4 C8,0.0,62
25525,Er4 Mo4 C8,0.0,62
25526,Li2 V4 O10,1.4299,31
25527,Y2 Mn5 Co12,0.0,166
25528,V10 B6,0.0,140
25529,Dy4 Mo4 C8,0.0,62
25530,Sr5 Ni2 Bi1 O10,0.0,139
25531,Yb10 Cu2 Sn6,0.0,193
25532,Nd2 Ga2 Co15,0.0,166
25533,Ce2 P4 H4 C2 O12,1.3160999999999998,12
25534,Gd4 C4 O16,0.34520000000000006,19
25535,Li4 Fe4 Si4 O16,2.7398,14
25536,Yb19 Mg8,0.0,204
25537,H16 Pt1 C4 N2 Cl6,2.2701000000000002,71
25538,Cd4 H12 Cl12 O4,2.9584,62
25539,Ba16 Fe12 Se24 F16,0.8619999999999999,62
25540,Mg64 Si31 Bi1,0.15909999999999958,221
25541,Ho4 Mn4 Cu16 P12,0.0,62
25542,K8 H12 W4 S4 O18,4.1037,15
25543,V6 H12 O20,1.6136,100
25544,Zn1 H20 Pd1 C4 N4 O12,3.0736999999999997,23
25545,Sm4 Ag4 H16 C8 S4 O40,2.6278,14
25546,Ni8 P16 H168 C56 Cl8,2.0963,14
25547,Na4 Tl2 P6 H14 N6 O16,4.4009,2
25548,Co2 P6 H32 N8 O22,3.1901,4
25549,Ba4 Te12 H60 C12 N12,1.2348,15
25550,Ti8 Si28 H168 C56 Cl24 O8,1.496,14
25551,La2 H32 N14 O38,3.4062,9
25552,Pr22 Hg90,0.060900000000000176,216
25553,Gd8 Ge6 O26,0.021499999999999853,2
25554,Na4 Th12 F52,2.9334,194
25555,H16 C4 S4 N8 O8,3.0369,2
25556,U4 H8 C4 O12 F12,0.08989999999999965,15
25557,Fe4 As8 Pb4 O32,0.09939999999999971,14
25558,Ba2 Mo12 I4 O50,0.4514999999999999,15
25559,Cu4 Te4 Pb12 C4 O40,0.03310000000000013,29
25560,Cs8 Cu40 S24,0.7775999999999996,114
25561,Ba4 Fe4 Co4 Pb4 O20,0.0,62
25562,Fe4 Mo8 H16 N4 O32,2.6096,62
25563,Ti2 Si14 H84 C28 Cl4 O4,2.4581,4
25564,Ni4 P8 H104 C32 S16 N8 O8,1.8349999999999997,14
25565,Er6 Si26 Os8,0.0,223
25566,Lu6 Si26 Os8,0.0,223
25567,Cu24 P8 O56,0.0,61
25568,Co6 Ag2 As6 O24,0.15500000000000025,15
25569,Si68,1.3629000000000002,194
25570,Fe4 H36 C16 N12 O24,3.5877,52
25571,Y12 Si12 O44,0.2743000000000002,14
25572,Rb8 Si16 B8 P8 H216 C72,2.6532,14
25573,Sr2 In1 Os1 O6,0.37760000000000016,225
25574,K3 Ir1 F6,2.3197,2
25575,K3 Lu1 F6,5.8661,225
25576,Tb2 Ge6 Pt1,0.0,38
25577,Ho2 Ge6 Pt1,0.0,38
25578,Tm2 Cu1 Ge6,0.0,38
25579,Tl1 Cr1 Se2,0.0,166
25580,Tm6 Cu22 Si8,0.019400000000000084,194
25581,Th2 Ge2 I12,2.3155,163
25582,Ti2 Cr4 O10,1.6109999999999998,15
25583,Ti6 Co2 S12,0.0,182
25584,Sr4 Yb2 Ta2 O12,0.28890000000000016,34
25585,Sr2 Ta1 Co1 O6,0.0,225
25586,Si8 Ag8 O20,1.2412,60
25587,Sm4 Be2 Ga4 O14,3.5409999999999995,113
25588,Sm4 U8 Se20,0.0,62
25589,Rb2 Al2 H8,2.8426,36
25590,Pr6 Nb2 Cl6 O12,0.0,176
25591,Nd6 Ta2 Cl6 O12,0.0,176
25592,Nb12 Al22 Ir2,0.0,193
25593,Na1 Ti8 Cu6 Bi1 O24,0.0,200
25594,Na4 Ca10 Ti2 Si8 O32 F4,0.0,4
25595,Li1 V4 O8,0.0,12
25596,Li2 Ca4 Te2 O12,0.0,14
25597,Li6 Si2 O8,0.0,63
25598,Li16 Eu2 Sn14,0.0,63
25599,La3 Ta1 Ga5 O14,0.0,150
25600,Mn2 Al4 P4 H40 O32,4.5172,2
25601,Hg12 B4 I8 O8 F16,0.15309999999999999,14
25602,H16 C8 S4 N16,3.5008,14
25603,H18 C6 S2 N8 O6,3.0793,2
25604,Cu4 Sn4 Pd8,0.0,123
25605,Cs2 Tb2 Mo4 O16,3.0629999999999997,15
25606,Er8 Rh5 C12,0.0,12
25607,Co6 Re8 B8,0.0,127
25608,Ce10 Ge4 Pd2,0.0,140
25609,Co6 H24 S6 O36,2.8948,36
25610,Ca11 Si4 Cl1 O18,0.0,121
25611,Be8 Si8 Ag16 O32,0.7848999999999999,29
25612,Al4 I4 O4,1.6545,29
25613,Zr4 Ti4 Rh4,0.0,38
25614,Zr4 Al4 Fe4,0.0,6
25615,Zn1 Co2,0.0,164
25616,Zr2 Co1 Mo3,0.0,166
25617,Zn1 Fe1 Sb2,0.0,164
25618,Yb2 Ge2 Au2,0.0,12
25619,Zr3 Fe1 Cu2 S8,0.09410000000000007,166
25620,Zr2 P7 Rh12,0.0,147
25621,Y2 Mn2 Co2,0.0,74
25622,Y1 Co10 Mo2,0.0,71
25623,Y2 Ti12 Cu9 O36,0.3073000000000006,147
25624,V2 Cu2 Sn2 S8,0.0,74
25625,Tm1 Si2 Pt2,0.0,139
25626,Ti1 Mo2,0.0,69
25627,V10 Si3 Ge3,0.0,189
25628,U2 Be25 Ga1,0.0,202
25629,U2 Si3 Au1,0.0,25
25630,U2 Mn1 Fe1 Se6,0.0,12
25631,Tm18 B10 S42,1.4312000000000005,146
25632,Ti4 As2 P2,0.0,194
25633,Ti3 V1 S4,0.0,10
25634,Tb1 Co1 C1,0.0,47
25635,Tb2 Mg5 Ag1,0.0,166
25636,Th8 Al63 Fe6,0.0,6
25637,Ta2 Cu2 S4,0.0,186
25638,Ta2 V1 C2,0.0,166
25639,Sr1 Pr1 Sc1 O4,3.6200999999999994,107
25640,Ta2 Cr1 Si6,0.0,21
25641,Sr1 Nd1 Ga1 O4,3.7036999999999995,107
25642,Sr2 Zr1 Mo1 O6,0.0,123
25643,Sr1 Ca2 Fe3 O6,0.0,123
25644,Sr5 Ir3 O11,0.0,5
25645,Sr3 Y2 Fe1 Cu3 Bi1 O12,0.0,38
25646,Sr2 Nd2 Mn1 Cu1 O8,0.0,123
25647,Sr2 Li1 La1 Ti4 O12,1.8362000000000003,139
25648,Sr4 Y2 Ga1 Cu5 Pb4 O16,0.0,8
25649,Sr2 Ho1 Cu2 Ru1 O8,0.0,5
25650,Sm1 V2 Fe5 Co5,0.0,44
25651,Si3 B3 W10,0.0,42
25652,Sm2 In3 Ni1,0.0,25
25653,Sc2 Te3,0.03759999999999941,71
25654,Re1 Ir3,0.0,166
25655,Pr1 U1 P2,0.0,123
25656,Nd2 Ho2 Zr4 O14,2.8996000000000004,74
25657,Nd3 Ga6 Co9,0.0,38
25658,Nb4 Co1 Pt3,0.0,25
25659,Nd1 Ti2 Co10,0.0,71
25660,Nd1 Mn2 Fe10,0.0,71
25661,Nd4 U2 Te10,0.0,25
25662,Nd8 V6 Fe50 B4,0.0,35
25663,Na1 La1 Nb2 O7,1.4867000000000001,119
25664,Nb2 Co1 Pb3 O9,1.6231,164
25665,Na2 In2 Mo5 O16,1.5561000000000003,8
25666,Mn1 Al1 Fe1 Co1,0.0,216
25667,Mn2 Cd2 Se8,0.0,14
25668,Mn4 Bi1 Sb3,0.0,25
25669,Mn8 Nb3 Si1,0.0,156
25670,Mn14 Fe6,0.0,4
25671,Mn11 Al4 V1,0.0,166
25672,Mg10 Ti2 B4 O20,0.4163000000000001,26
25673,Na16 Ti7 Si8 O40,0.05170000000000008,12
25674,Li1 Y1 Mo2 O8,3.2182999999999997,82
25675,Mg6 Al14 Si8 O44,0.2054999999999998,38
25676,La1 Ti1 Al1 Pb1 O6,2.583800000000001,216
25677,Li2 Ce1 Pr1 Mo4 O16,0.0,81
25678,Li2 Al2 P2 O9 F1,0.34560000000000013,1
25679,La1 Mn2 Cd1 O6,0.0,155
25680,Lu18 B10 S42,1.3054000000000006,146
25681,La1 Er4 Se7,0.0,8
25682,La3 Dy1 C8,0.0,123
25683,La1 Si2 Pt2,0.0,139
25684,K1 Sr2 Bi3 O9,0.0,164
25685,La8 Cu6 Mo2 O24,0.0,2
25686,La2 Ga5 Ni5,0.0,38
25687,K4 H2 S4 N2 O12,4.8814,7
25688,K6 Nb11 O30,0.0,38
25689,K6 Bi6 O19,0.0,5
25690,Ga2 Fe1 Co1,0.0,123
25691,Ho12 Si16,0.0,8
25692,Fe2 Ni2 Te8,0.0,14
25693,Dy1 Y1 C4,0.0,65
25694,K22 Li8 Ta30 O90,2.0781,38
25695,Dy1 V2 Fe5 Co5,0.0,44
25696,Er1 Co10 Mo2,0.0,71
25697,H48 C16 N8 O36,3.2683,14
25698,Dy1 Co1 C1,0.0,123
25699,Dy4 Sc2 Nb2 O14,2.1517000000000004,74
25700,Dy4 Ni3 Bi8,0.0,115
25701,Er1 Fe1 Ni4,0.0,187
25702,Eu4 Ti2 Cu2 O12,0.0,14
25703,Gd1 Co10 Mo2,0.0,71
25704,Dy1 Co10 Mo2,0.0,71
25705,Cu2 S1,0.3327,44